
FAST Summary File

Predictions were generated on 12-May-2014 at 12:42:59 using FAST (v8.07.00a-bjj, 9-May-2014), compiled for 32-bit systems using single precision
  compiled with
    NWTC Subroutine Library (v2.03.00d-bjj, 22-Jan-2014)
    ElastoDyn (v1.01.06a-bjj, 2-May-2014)
    ServoDyn (v1.01.02a-bjj, 31-Jan-2014)
    AeroDyn (v14.02.01b-bjj, 29-Jan-2014)
    InflowWind (v2.00.01a-bjj, 22-Jan-2014)
    HydroDyn (v2.00.05c-gjh, 07-May-2014)
    SubDyn (unknown version, unknown date) [not called]
    MAP (0.97.01a-mdm, Mar-05-2014)
    FEAMooring (unknown version, unknown date) [not called]
    IceFloe (unknown version, unknown date) [not called]


Modeling a floating offshore turbine
Description from the FAST input file: 
  FAST Certification Test #23: NREL 5.0 MW Baseline Wind Turbine with Floating TLP Configuration, for use in offshore analysis

Interpolation order for input/output time histories: 2 (quadratic)
Number of correction iterations:  0
Number of rows in Jacobian matrix used for coupling ElastoDyn to HydroDyn:     12


   Requested Time Steps  
  -------------------------------------------------
  Component          Time Step (s)    Subcycles (-)
  -----------------  ---------------  -------------
  FAST (glue code)    2.000E-03
  ElastoDyn           2.000E-03              1
  AeroDyn             2.000E-03              1
  ServoDyn            2.000E-03              1
  HydroDyn            2.000E-03              1
  MAP                 2.000E-03              1
  FAST output files   2.000E-03              1


   Requested Channels in FAST Output File(s)  
  --------------------------------------------
  Number  Name        Units       Generated by
  ------  ----------  ----------  ------------
       1  Time        (s)         FAST
       2  WindVxi     (m/s)       InflowWind
       3  WindVyi     (m/s)       InflowWind
       4  WindVzi     (m/s)       InflowWind
       5  BldPitch1   (deg)       ElastoDyn
       6  BldPitch2   (deg)       ElastoDyn
       7  BldPitch3   (deg)       ElastoDyn
       8  Azimuth     (deg)       ElastoDyn
       9  RotSpeed    (rpm)       ElastoDyn
      10  GenSpeed    (rpm)       ElastoDyn
      11  NacYaw      (deg)       ElastoDyn
      12  OoPDefl1    (m)         ElastoDyn
      13  IPDefl1     (m)         ElastoDyn
      14  TwstDefl1   (deg)       ElastoDyn
      15  OoPDefl2    (m)         ElastoDyn
      16  IPDefl2     (m)         ElastoDyn
      17  TwstDefl2   (deg)       ElastoDyn
      18  OoPDefl3    (m)         ElastoDyn
      19  IPDefl3     (m)         ElastoDyn
      20  TwstDefl3   (deg)       ElastoDyn
      21  TwrClrnc1   (m)         ElastoDyn
      22  TwrClrnc2   (m)         ElastoDyn
      23  TwrClrnc3   (m)         ElastoDyn
      24  NcIMUTAxs   (m/s^2)     ElastoDyn
      25  NcIMUTAys   (m/s^2)     ElastoDyn
      26  NcIMUTAzs   (m/s^2)     ElastoDyn
      27  TTDspFA     (m)         ElastoDyn
      28  TTDspSS     (m)         ElastoDyn
      29  TTDspTwst   (deg)       ElastoDyn
      30  PtfmSurge   (m)         ElastoDyn
      31  PtfmSway    (m)         ElastoDyn
      32  PtfmHeave   (m)         ElastoDyn
      33  PtfmRoll    (deg)       ElastoDyn
      34  PtfmPitch   (deg)       ElastoDyn
      35  PtfmYaw     (deg)       ElastoDyn
      36  PtfmTAxt    (m/s^2)     ElastoDyn
      37  PtfmTAyt    (m/s^2)     ElastoDyn
      38  PtfmTAzt    (m/s^2)     ElastoDyn
      39  RootFxc1    (kN)        ElastoDyn
      40  RootFyc1    (kN)        ElastoDyn
      41  RootFzc1    (kN)        ElastoDyn
      42  RootMxc1    (kN·m)      ElastoDyn
      43  RootMyc1    (kN·m)      ElastoDyn
      44  RootMzc1    (kN·m)      ElastoDyn
      45  RootFxc2    (kN)        ElastoDyn
      46  RootFyc2    (kN)        ElastoDyn
      47  RootFzc2    (kN)        ElastoDyn
      48  RootMxc2    (kN·m)      ElastoDyn
      49  RootMyc2    (kN·m)      ElastoDyn
      50  RootMzc2    (kN·m)      ElastoDyn
      51  RootFxc3    (kN)        ElastoDyn
      52  RootFyc3    (kN)        ElastoDyn
      53  RootFzc3    (kN)        ElastoDyn
      54  RootMxc3    (kN·m)      ElastoDyn
      55  RootMyc3    (kN·m)      ElastoDyn
      56  RootMzc3    (kN·m)      ElastoDyn
      57  Spn1MLxb1   (kN·m)      ElastoDyn
      58  Spn1MLyb1   (kN·m)      ElastoDyn
      59  Spn1MLzb1   (kN·m)      ElastoDyn
      60  Spn1MLxb2   (kN·m)      ElastoDyn
      61  Spn1MLyb2   (kN·m)      ElastoDyn
      62  Spn1MLzb2   (kN·m)      ElastoDyn
      63  Spn1MLxb3   (kN·m)      ElastoDyn
      64  Spn1MLyb3   (kN·m)      ElastoDyn
      65  Spn1MLzb3   (kN·m)      ElastoDyn
      66  RotThrust   (kN)        ElastoDyn
      67  LSSGagFya   (kN)        ElastoDyn
      68  LSSGagFza   (kN)        ElastoDyn
      69  RotTorq     (kN·m)      ElastoDyn
      70  LSSGagMya   (kN·m)      ElastoDyn
      71  LSSGagMza   (kN·m)      ElastoDyn
      72  YawBrFxp    (kN)        ElastoDyn
      73  YawBrFyp    (kN)        ElastoDyn
      74  YawBrFzp    (kN)        ElastoDyn
      75  YawBrMxp    (kN·m)      ElastoDyn
      76  YawBrMyp    (kN·m)      ElastoDyn
      77  YawBrMzp    (kN·m)      ElastoDyn
      78  TwrBsFxt    (kN)        ElastoDyn
      79  TwrBsFyt    (kN)        ElastoDyn
      80  TwrBsFzt    (kN)        ElastoDyn
      81  TwrBsMxt    (kN·m)      ElastoDyn
      82  TwrBsMyt    (kN·m)      ElastoDyn
      83  TwrBsMzt    (kN·m)      ElastoDyn
      84  TwHt1MLxt   (kN·m)      ElastoDyn
      85  TwHt1MLyt   (kN·m)      ElastoDyn
      86  TwHt1MLzt   (kN·m)      ElastoDyn
      87  GenPwr      (kW)        ServoDyn
      88  GenTq       (kN·m)      ServoDyn
      89  HSSBrTq     (kN·m)      ServoDyn
      90  Wave1Elev   (m)         HydroDyn
      91  X[1]        [m]         MAP
      92  T[1](0.0)   [kN]        MAP
      93  T[1](16.9)  [kN]        MAP
      94  T[1](33.7)  [kN]        MAP
      95  T[1](50.6)  [kN]        MAP
      96  T[1](67.4)  [kN]        MAP
      97  T[1](84.3)  [kN]        MAP
      98  T[1](101.2  [kN]        MAP
      99  T[1](118.0  [kN]        MAP
     100  T[1](134.9  [kN]        MAP
     101  T[1](151.7  [kN]        MAP
     102  TFair[1]    [kN]        MAP
     103  TAnch[1]    [kN]        MAP
     104  X[2]        [m]         MAP
     105  T[2](0.0)   [kN]        MAP
     106  T[2](16.9)  [kN]        MAP
     107  T[2](33.7)  [kN]        MAP
     108  T[2](50.6)  [kN]        MAP
     109  T[2](67.4)  [kN]        MAP
     110  T[2](84.3)  [kN]        MAP
     111  T[2](101.2  [kN]        MAP
     112  T[2](118.0  [kN]        MAP
     113  T[2](134.9  [kN]        MAP
     114  T[2](151.7  [kN]        MAP
     115  TFair[2]    [kN]        MAP
     116  TAnch[2]    [kN]        MAP
     117  X[3]        [m]         MAP
     118  T[3](0.0)   [kN]        MAP
     119  T[3](16.9)  [kN]        MAP
     120  T[3](33.7)  [kN]        MAP
     121  T[3](50.6)  [kN]        MAP
     122  T[3](67.4)  [kN]        MAP
     123  T[3](84.3)  [kN]        MAP
     124  T[3](101.2  [kN]        MAP
     125  T[3](118.0  [kN]        MAP
     126  T[3](134.9  [kN]        MAP
     127  T[3](151.7  [kN]        MAP
     128  TFair[3]    [kN]        MAP
     129  TAnch[3]    [kN]        MAP
     130  X[4]        [m]         MAP
     131  T[4](0.0)   [kN]        MAP
     132  T[4](16.9)  [kN]        MAP
     133  T[4](33.7)  [kN]        MAP
     134  T[4](50.6)  [kN]        MAP
     135  T[4](67.4)  [kN]        MAP
     136  T[4](84.3)  [kN]        MAP
     137  T[4](101.2  [kN]        MAP
     138  T[4](118.0  [kN]        MAP
     139  T[4](134.9  [kN]        MAP
     140  T[4](151.7  [kN]        MAP
     141  TFair[4]    [kN]        MAP
     142  TAnch[4]    [kN]        MAP
     143  X[5]        [m]         MAP
     144  T[5](0.0)   [kN]        MAP
     145  T[5](16.9)  [kN]        MAP
     146  T[5](33.7)  [kN]        MAP
     147  T[5](50.6)  [kN]        MAP
     148  T[5](67.4)  [kN]        MAP
     149  T[5](84.3)  [kN]        MAP
     150  T[5](101.2  [kN]        MAP
     151  T[5](118.0  [kN]        MAP
     152  T[5](134.9  [kN]        MAP
     153  T[5](151.7  [kN]        MAP
     154  TFair[5]    [kN]        MAP
     155  TAnch[5]    [kN]        MAP
     156  X[6]        [m]         MAP
     157  T[6](0.0)   [kN]        MAP
     158  T[6](16.9)  [kN]        MAP
     159  T[6](33.7)  [kN]        MAP
     160  T[6](50.6)  [kN]        MAP
     161  T[6](67.4)  [kN]        MAP
     162  T[6](84.3)  [kN]        MAP
     163  T[6](101.2  [kN]        MAP
     164  T[6](118.0  [kN]        MAP
     165  T[6](134.9  [kN]        MAP
     166  T[6](151.7  [kN]        MAP
     167  TFair[6]    [kN]        MAP
     168  TAnch[6]    [kN]        MAP
     169  X[7]        [m]         MAP
     170  T[7](0.0)   [kN]        MAP
     171  T[7](16.9)  [kN]        MAP
     172  T[7](33.7)  [kN]        MAP
     173  T[7](50.6)  [kN]        MAP
     174  T[7](67.4)  [kN]        MAP
     175  T[7](84.3)  [kN]        MAP
     176  T[7](101.2  [kN]        MAP
     177  T[7](118.0  [kN]        MAP
     178  T[7](134.9  [kN]        MAP
     179  T[7](151.7  [kN]        MAP
     180  TFair[7]    [kN]        MAP
     181  TAnch[7]    [kN]        MAP
     182  X[8]        [m]         MAP
     183  T[8](0.0)   [kN]        MAP
     184  T[8](16.9)  [kN]        MAP
     185  T[8](33.7)  [kN]        MAP
     186  T[8](50.6)  [kN]        MAP
     187  T[8](67.4)  [kN]        MAP
     188  T[8](84.3)  [kN]        MAP
     189  T[8](101.2  [kN]        MAP
     190  T[8](118.0  [kN]        MAP
     191  T[8](134.9  [kN]        MAP
     192  T[8](151.7  [kN]        MAP
     193  TFair[8]    [kN]        MAP
     194  TAnch[8]    [kN]        MAP
