
Predictions were generated on 27-Jul-2016 at 02:10:21 using FAST (v8.16.00a-bjj, 27-Jul-2016), compiled as a 32-bit application using single precision
 linked with  NWTC Subroutine Library (v2.09.00, 23-Jul-2016); ElastoDyn (v1.04.00a-bjj, 26-Jul-2016); InflowWind (v3.03.00, 26-Jul-2016); AeroDyn (v15.03.00, 27-Jul-2016); ServoDyn (v1.06.00a-bjj, 26-Jul-2016)

Description from the FAST input file: FAST Certification Test #12: WindPACT 1.5 MW Baseline with many DOFs with VS and VP and ECD wind.

Time      	Wind1VelX 	Wind1VelY 	Wind1VelZ 	OoPDefl3  	IPDefl3   	TipALxb3  	TipALyb3  	Spn4ALxb1 	Spn4ALyb1 	BldPitch3 	RotAccel  	LSSGagA   	HSShftA   	RootFxb3  	RootFyb3  	RootMEdg3 	RootMFlp3 	LSShftFya 	LSShftFza 	YawBrFxp  	YawBrFyp  	TwrBsFxt  	TwrBsFyt  	RtSkew    
(s)       	(m/s)     	(m/s)     	(m/s)     	(m)       	(m)       	(m/s^2)   	(m/s^2)   	(m/s^2)   	(m/s^2)   	(deg)     	(deg/s^2) 	(deg/s^2) 	(deg/s^2) 	(kN)      	(kN)      	(kN·m)    	(kN·m)    	(kN)      	(kN)      	(kN)      	(kN)      	(kN)      	(kN)      	(deg)     
    5.0000	 1.180E+01	 0.000E+00	 0.000E+00	 1.465E+00	-4.269E-01	 1.518E+01	 4.611E-01	 3.434E+00	 1.443E-01	 7.500E+00	 2.007E-01	 2.025E-01	 1.781E+01	 6.223E+01	-4.020E+01	 4.762E+02	 1.147E+03	 2.219E+02	 1.469E+02	 1.126E+02	 5.044E+00	 9.317E+01	 9.359E+00	 5.122E+00
    5.0500	 1.180E+01	 0.000E+00	 0.000E+00	 1.515E+00	-3.089E-01	 4.985E+01	-5.263E+00	 5.004E+00	 1.144E+00	 2.600E+00	-1.194E+01	-6.764E+00	-5.950E+02	 6.084E+01	-4.380E+01	 5.197E+02	 1.143E+03	 2.362E+02	 1.224E+02	 1.147E+02	 2.982E+00	 9.565E+01	 8.223E+00	 5.338E+00
    5.1000	 1.180E+01	 0.000E+00	 0.000E+00	 1.611E+00	-3.418E-01	 2.528E+01	 7.444E+00	 7.750E+00	-2.210E-01	 2.600E+00	 1.112E+01	 1.306E-01	 1.149E+01	 6.047E+01	-3.834E+01	 5.160E+02	 1.168E+03	 2.471E+02	 9.800E+01	 1.189E+02	 5.932E+00	 9.684E+01	 2.023E+00	 5.515E+00
    5.1500	 1.180E+01	 0.000E+00	 0.000E+00	 1.732E+00	-3.555E-01	 1.147E+01	 8.589E+00	 6.881E+00	 1.141E-01	 2.600E+00	 9.594E+00	 9.895E+00	 8.704E+02	 6.444E+01	-3.711E+01	 5.047E+02	 1.256E+03	 2.566E+02	 7.262E+01	 1.246E+02	 7.709E+00	 1.003E+02	 1.789E-01	 5.582E+00
    5.2000	 1.180E+01	 0.000E+00	 0.000E+00	 1.841E+00	-3.363E-01	 1.413E+01	 2.496E+00	 3.615E+00	 2.610E-01	 2.600E+00	 1.152E+00	 2.957E+00	 2.601E+02	 7.263E+01	-3.494E+01	 4.472E+02	 1.395E+03	 2.646E+02	 4.388E+01	 1.325E+02	 1.978E+00	 1.055E+02	 7.116E+00	 5.552E+00
    5.2500	 1.180E+01	 0.000E+00	 0.000E+00	 1.941E+00	-3.080E-01	 1.685E+01	-3.074E+00	 1.390E+00	 1.911E-01	 2.600E+00	-5.711E+00	-6.065E+00	-5.335E+02	 7.943E+01	-3.173E+01	 3.809E+02	 1.511E+03	 2.684E+02	 1.429E+01	 1.423E+02	-3.563E+00	 1.107E+02	 1.194E+01	 5.464E+00
    5.3000	 1.180E+01	 0.000E+00	 0.000E+00	 2.032E+00	-2.961E-01	 1.116E+01	-2.946E+00	 2.083E+00	-8.205E-03	 2.600E+00	-5.267E+00	-5.730E+00	-5.040E+02	 8.107E+01	-2.784E+01	 3.369E+02	 1.556E+03	 2.674E+02	-1.338E+01	 1.528E+02	-2.885E+00	 1.164E+02	 6.672E+00	 5.351E+00
    5.3500	 1.180E+01	 0.000E+00	 0.000E+00	 2.100E+00	-2.996E-01	 4.031E+00	 9.654E-01	 4.227E+00	-3.047E-01	 2.600E+00	 9.304E-01	 9.990E-01	 8.787E+01	 7.917E+01	-2.344E+01	 3.090E+02	 1.546E+03	 2.632E+02	-3.935E+01	 1.628E+02	 1.766E+00	 1.260E+02	-4.487E+00	 5.247E+00
    5.4000	 1.180E+01	 0.000E+00	 0.000E+00	 2.127E+00	-2.985E-01	 4.903E+00	 3.113E+00	 5.464E+00	-5.082E-01	 2.600E+00	 5.556E+00	 5.774E+00	 5.079E+02	 7.751E+01	-1.901E+01	 2.738E+02	 1.527E+03	 2.570E+02	-6.570E+01	 1.720E+02	 4.121E+00	 1.418E+02	-1.099E+01	 5.176E+00
    5.4500	 1.180E+01	 0.000E+00	 0.000E+00	 2.114E+00	-2.797E-01	 1.332E+01	 1.146E+00	 5.290E+00	-4.893E-01	 2.600E+00	 4.634E+00	 4.727E+00	 4.158E+02	 7.757E+01	-1.479E+01	 2.200E+02	 1.521E+03	 2.482E+02	-9.341E+01	 1.815E+02	 9.712E-01	 1.621E+02	-7.486E+00	 5.144E+00
    5.5000	 1.180E+01	 0.000E+00	 0.000E+00	 2.082E+00	-2.493E-01	 2.150E+01	-2.246E+00	 4.916E+00	-3.233E-01	 2.600E+00	 1.009E+00	 9.447E-01	 8.310E+01	 7.796E+01	-1.068E+01	 1.575E+02	 1.515E+03	 2.359E+02	-1.209E+02	 1.924E+02	-4.995E+00	 1.823E+02	 1.150E+00	 5.146E+00
    5.5500	 1.180E+01	 0.000E+00	 0.000E+00	 2.049E+00	-2.223E-01	 2.417E+01	-3.547E+00	 5.269E+00	-1.900E-01	 2.600E+00	-6.031E-01	-7.040E-01	-6.192E+01	 7.723E+01	-6.550E+00	 1.026E+02	 1.495E+03	 2.204E+02	-1.456E+02	 2.053E+02	-8.666E+00	 1.993E+02	 5.540E+00	 5.170E+00
    5.6000	 1.180E+01	 0.000E+00	 0.000E+00	 2.023E+00	-2.054E-01	 2.278E+01	-2.205E+00	 5.939E+00	-1.754E-01	 2.600E+00	 8.827E-01	 8.679E-01	 7.635E+01	 7.542E+01	-2.392E+00	 6.027E+01	 1.463E+03	 2.030E+02	-1.667E+02	 2.193E+02	-7.777E+00	 2.134E+02	 1.155E+00	 5.210E+00
    5.6500	 1.180E+01	 0.000E+00	 0.000E+00	 2.002E+00	-1.936E-01	 2.175E+01	-3.115E-01	 6.005E+00	-2.265E-01	 2.600E+00	 2.838E+00	 2.906E+00	 2.556E+02	 7.402E+01	 1.577E+00	 2.301E+01	 1.439E+03	 1.844E+02	-1.852E+02	 2.334E+02	-4.508E+00	 2.275E+02	-8.168E+00	 5.263E+00
    5.7000	 1.180E+01	 0.000E+00	 0.000E+00	 1.982E+00	-1.791E-01	 2.297E+01	 1.491E-01	 5.284E+00	-2.489E-01	 2.600E+00	 2.670E+00	 2.738E+00	 2.408E+02	 7.387E+01	 5.214E+00	-1.758E+01	 1.431E+03	 1.641E+02	-2.024E+02	 2.466E+02	-2.710E+00	 2.437E+02	-1.483E+01	 5.322E+00
    5.7500	 1.180E+01	 0.000E+00	 0.000E+00	 1.967E+00	-1.603E-01	 2.474E+01	-6.825E-01	 4.433E+00	-2.264E-01	 2.600E+00	 7.512E-01	 7.315E-01	 6.434E+01	 7.455E+01	 8.561E+00	-6.163E+01	 1.436E+03	 1.415E+02	-2.184E+02	 2.585E+02	-4.153E+00	 2.618E+02	-1.457E+01	 5.382E+00
    5.8000	 1.180E+01	 0.000E+00	 0.000E+00	 1.961E+00	-1.423E-01	 2.483E+01	-1.276E+00	 4.046E+00	-1.925E-01	 2.600E+00	-5.287E-01	-5.970E-01	-5.251E+01	 7.518E+01	 1.178E+01	-1.032E+02	 1.442E+03	 1.168E+02	-2.322E+02	 2.696E+02	-7.423E+00	 2.796E+02	-9.402E+00	 5.440E+00
    5.8500	 1.180E+01	 0.000E+00	 0.000E+00	 1.965E+00	-1.293E-01	 2.322E+01	-7.641E-01	 4.038E+00	-2.117E-01	 2.600E+00	 1.948E-01	 1.559E-01	 1.372E+01	 7.543E+01	 1.497E+01	-1.387E+02	 1.446E+03	 9.072E+01	-2.429E+02	 2.803E+02	-9.890E+00	 2.950E+02	-4.648E+00	 5.497E+00
    5.9000	 1.180E+01	 0.000E+00	 0.000E+00	 1.974E+00	-1.201E-01	 2.158E+01	 2.092E-01	 3.947E+00	-2.830E-01	 2.600E+00	 1.924E+00	 1.950E+00	 1.716E+02	 7.565E+01	 1.808E+01	-1.706E+02	 1.451E+03	 6.430E+01	-2.505E+02	 2.909E+02	-1.013E+01	 3.070E+02	-4.056E+00	 5.552E+00
    5.9500	 1.180E+01	 0.000E+00	 0.000E+00	 1.985E+00	-1.103E-01	 2.117E+01	 4.537E-01	 3.562E+00	-3.608E-01	 2.600E+00	 2.729E+00	 2.783E+00	 2.448E+02	 7.622E+01	 2.097E+01	-2.035E+02	 1.461E+03	 3.781E+01	-2.553E+02	 3.009E+02	-8.674E+00	 3.163E+02	-7.391E+00	 5.602E+00
    6.0000	 1.180E+01	 0.000E+00	 0.000E+00	 1.997E+00	-9.780E-02	 2.165E+01	-3.689E-01	 3.117E+00	-4.146E-01	 2.600E+00	 1.942E+00	 1.963E+00	 1.726E+02	 7.715E+01	 2.349E+01	-2.375E+02	 1.476E+03	 1.111E+01	-2.576E+02	 3.095E+02	-7.004E+00	 3.242E+02	-1.161E+01	 5.641E+00
    6.0500	 1.180E+01	-1.545E-03	 0.000E+00	 2.011E+00	-8.534E-02	 2.207E+01	-1.484E+00	 2.918E+00	-4.560E-01	 2.600E+00	 6.654E-01	 6.368E-01	 5.601E+01	 7.804E+01	 2.560E+01	-2.679E+02	 1.491E+03	-1.592E+01	-2.573E+02	 3.162E+02	-6.204E+00	 3.317E+02	-1.363E+01	 5.665E+00
    6.1000	 1.180E+01	-3.090E-03	 0.000E+00	 2.026E+00	-7.717E-02	 2.200E+01	-1.924E+00	 3.006E+00	-5.158E-01	 2.600E+00	 3.786E-01	 3.343E-01	 2.941E+01	 7.881E+01	 2.724E+01	-2.890E+02	 1.505E+03	-4.308E+01	-2.543E+02	 3.208E+02	-6.418E+00	 3.389E+02	-1.234E+01	 5.675E+00
    6.1500	 1.181E+01	-7.729E-03	 0.000E+00	 2.045E+00	-7.506E-02	 2.176E+01	-1.500E+00	 3.203E+00	-6.068E-01	 2.600E+00	 1.374E+00	 1.362E+00	 1.198E+02	 7.953E+01	 2.840E+01	-2.995E+02	 1.519E+03	-6.994E+01	-2.484E+02	 3.236E+02	-7.118E+00	 3.448E+02	-8.785E+00	 5.680E+00
    6.2000	 1.181E+01	-1.237E-02	 0.000E+00	 2.065E+00	-7.714E-02	 2.172E+01	-8.155E-01	 3.334E+00	-7.123E-01	 2.600E+00	 2.657E+00	 2.682E+00	 2.359E+02	 8.037E+01	 2.906E+01	-3.022E+02	 1.535E+03	-9.597E+01	-2.395E+02	 3.252E+02	-7.605E+00	 3.481E+02	-5.138E+00	 5.687E+00
    6.2500	 1.182E+01	-2.012E-02	 0.000E+00	 2.087E+00	-8.043E-02	 2.188E+01	-4.912E-01	 3.402E+00	-8.119E-01	 2.600E+00	 3.156E+00	 3.193E+00	 2.808E+02	 8.141E+01	 2.921E+01	-3.011E+02	 1.555E+03	-1.207E+02	-2.278E+02	 3.259E+02	-7.323E+00	 3.479E+02	-3.323E+00	 5.705E+00
    6.3000	 1.183E+01	-2.788E-02	 0.000E+00	 2.112E+00	-8.357E-02	 2.197E+01	-7.083E-01	 3.491E+00	-8.977E-01	 2.600E+00	 2.716E+00	 2.723E+00	 2.396E+02	 8.255E+01	 2.895E+01	-2.980E+02	 1.576E+03	-1.439E+02	-2.137E+02	 3.256E+02	-6.109E+00	 3.447E+02	-3.895E+00	 5.732E+00
    6.3500	 1.185E+01	-3.887E-02	 0.000E+00	 2.139E+00	-8.744E-02	 2.194E+01	-1.109E+00	 3.675E+00	-9.668E-01	 2.600E+00	 2.058E+00	 2.050E+00	 1.804E+02	 8.362E+01	 2.837E+01	-2.919E+02	 1.598E+03	-1.654E+02	-1.976E+02	 3.239E+02	-4.293E+00	 3.395E+02	-5.751E+00	 5.763E+00
    6.4000	 1.186E+01	-4.988E-02	 0.000E+00	 2.168E+00	-9.344E-02	 2.183E+01	-1.338E+00	 3.927E+00	-1.029E+00	 2.600E+00	 1.916E+00	 1.898E+00	 1.669E+02	 8.463E+01	 2.749E+01	-2.811E+02	 1.620E+03	-1.855E+02	-1.796E+02	 3.203E+02	-2.622E+00	 3.338E+02	-6.811E+00	 5.788E+00
    6.4500	 1.188E+01	-6.394E-02	 0.000E+00	 2.199E+00	-1.020E-01	 2.182E+01	-1.393E+00	 4.216E+00	-1.082E+00	 2.600E+00	 2.391E+00	 2.384E+00	 2.097E+02	 8.560E+01	 2.627E+01	-2.651E+02	 1.642E+03	-2.040E+02	-1.596E+02	 3.150E+02	-1.752E+00	 3.277E+02	-5.511E+00	 5.801E+00
    6.5000	 1.189E+01	-7.804E-02	 0.000E+00	 2.230E+00	-1.125E-01	 2.189E+01	-1.479E+00	 4.502E+00	-1.113E+00	 2.600E+00	 3.065E+00	 3.070E+00	 2.701E+02	 8.650E+01	 2.462E+01	-2.442E+02	 1.664E+03	-2.206E+02	-1.375E+02	 3.084E+02	-1.736E+00	 3.208E+02	-1.999E+00	 5.800E+00
    6.5500	 1.191E+01	-9.522E-02	 0.000E+00	 2.261E+00	-1.245E-01	 2.200E+01	-1.711E+00	 4.785E+00	-1.128E+00	 2.600E+00	 3.510E+00	 3.522E+00	 3.098E+02	 8.730E+01	 2.253E+01	-2.186E+02	 1.684E+03	-2.348E+02	-1.136E+02	 3.010E+02	-1.919E+00	 3.120E+02	 1.908E+00	 5.789E+00
    6.6000	 1.193E+01	-1.125E-01	 0.000E+00	 2.292E+00	-1.379E-01	 2.218E+01	-1.980E+00	 5.040E+00	-1.138E+00	 2.600E+00	 3.604E+00	 3.605E+00	 3.171E+02	 8.799E+01	 2.001E+01	-1.881E+02	 1.702E+03	-2.460E+02	-8.834E+01	 2.932E+02	-1.463E+00	 3.010E+02	 4.099E+00	 5.772E+00
    6.6500	 1.196E+01	-1.330E-01	 0.000E+00	 2.320E+00	-1.533E-01	 2.251E+01	-2.102E+00	 5.277E+00	-1.152E+00	 2.600E+00	 3.492E+00	 3.493E+00	 3.072E+02	 8.861E+01	 1.709E+01	-1.522E+02	 1.719E+03	-2.543E+02	-6.212E+01	 2.851E+02	-3.683E-02	 2.883E+02	 3.816E+00	 5.757E+00
    6.7000	 1.198E+01	-1.537E-01	 0.000E+00	 2.346E+00	-1.707E-01	 2.304E+01	-2.123E+00	 5.497E+00	-1.165E+00	 2.600E+00	 3.355E+00	 3.354E+00	 2.950E+02	 8.915E+01	 1.385E+01	-1.116E+02	 1.734E+03	-2.598E+02	-3.521E+01	 2.764E+02	 1.870E+00	 2.749E+02	 2.231E+00	 5.744E+00
    6.7500	 1.201E+01	-1.774E-01	 0.000E+00	 2.369E+00	-1.896E-01	 2.364E+01	-2.031E+00	 5.716E+00	-1.182E+00	 2.600E+00	 3.433E+00	 3.416E+00	 3.005E+02	 8.956E+01	 1.033E+01	-6.708E+01	 1.747E+03	-2.627E+02	-7.620E+00	 2.670E+02	 3.341E+00	 2.620E+02	 1.447E+00	 5.733E+00
    6.8000	 1.203E+01	-2.012E-01	 0.000E+00	 2.390E+00	-2.093E-01	 2.413E+01	-1.981E+00	 5.911E+00	-1.189E+00	 2.600E+00	 3.619E+00	 3.618E+00	 3.183E+02	 8.976E+01	 6.511E+00	-1.971E+01	 1.757E+03	-2.627E+02	 2.057E+01	 2.571E+02	 3.813E+00	 2.499E+02	 2.762E+00	 5.721E+00
    6.8500	 1.206E+01	-2.284E-01	 0.000E+00	 2.408E+00	-2.292E-01	 2.451E+01	-2.020E+00	 6.065E+00	-1.189E+00	 2.600E+00	 3.859E+00	 3.887E+00	 3.420E+02	 8.975E+01	 2.461E+00	 2.955E+01	 1.763E+03	-2.597E+02	 4.897E+01	 2.470E+02	 3.475E+00	 2.382E+02	 5.696E+00	 5.711E+00
    6.9000	 1.210E+01	-2.557E-01	 0.000E+00	 2.423E+00	-2.490E-01	 2.492E+01	-2.083E+00	 6.155E+00	-1.190E+00	 2.600E+00	 4.127E+00	 4.132E+00	 3.635E+02	 8.959E+01	-1.658E+00	 7.951E+01	 1.767E+03	-2.535E+02	 7.691E+01	 2.372E+02	 3.056E+00	 2.263E+02	 8.481E+00	 5.700E+00
    6.9500	 1.213E+01	-2.863E-01	 0.000E+00	 2.433E+00	-2.685E-01	 2.550E+01	-2.136E+00	 6.199E+00	-1.195E+00	 2.600E+00	 4.309E+00	 4.313E+00	 3.794E+02	 8.938E+01	-5.824E+00	 1.297E+02	 1.768E+03	-2.442E+02	 1.038E+02	 2.282E+02	 3.243E+00	 2.141E+02	 9.444E+00	 5.695E+00
    7.0000	 1.216E+01	-3.170E-01	 0.000E+00	 2.439E+00	-2.875E-01	 2.622E+01	-2.199E+00	 6.216E+00	-1.200E+00	 2.600E+00	 4.311E+00	 4.315E+00	 3.795E+02	 8.916E+01	-9.987E+00	 1.796E+02	 1.767E+03	-2.320E+02	 1.294E+02	 2.198E+02	 4.115E+00	 2.019E+02	 8.328E+00	 5.694E+00
    7.0500	 1.220E+01	-3.511E-01	 0.000E+00	 2.441E+00	-3.056E-01	 2.694E+01	-2.310E+00	 6.229E+00	-1.200E+00	 2.600E+00	 4.146E+00	 4.149E+00	 3.649E+02	 8.893E+01	-1.414E+01	 2.285E+02	 1.766E+03	-2.171E+02	 1.535E+02	 2.120E+02	 5.147E+00	 1.906E+02	 6.350E+00	 5.702E+00
    7.1000	 1.224E+01	-3.854E-01	 0.000E+00	 2.441E+00	-3.230E-01	 2.749E+01	-2.451E+00	 6.222E+00	-1.194E+00	 2.600E+00	 3.957E+00	 3.951E+00	 3.475E+02	 8.866E+01	-1.829E+01	 2.767E+02	 1.762E+03	-1.995E+02	 1.761E+02	 2.048E+02	 5.656E+00	 1.808E+02	 5.169E+00	 5.715E+00
    7.1500	 1.228E+01	-4.230E-01	 0.000E+00	 2.439E+00	-3.398E-01	 2.786E+01	-2.534E+00	 6.194E+00	-1.192E+00	 2.600E+00	 3.943E+00	 3.938E+00	 3.464E+02	 8.835E+01	-2.240E+01	 3.242E+02	 1.758E+03	-1.794E+02	 1.970E+02	 1.982E+02	 5.338E+00	 1.730E+02	 5.608E+00	 5.740E+00
    7.2000	 1.232E+01	-4.607E-01	 0.000E+00	 2.435E+00	-3.562E-01	 2.812E+01	-2.492E+00	 6.132E+00	-1.183E+00	 2.600E+00	 4.165E+00	 4.161E+00	 3.661E+02	 8.804E+01	-2.640E+01	 3.708E+02	 1.752E+03	-1.568E+02	 2.158E+02	 1.925E+02	 4.432E+00	 1.666E+02	 7.136E+00	 5.772E+00
    7.2500	 1.236E+01	-5.020E-01	 0.000E+00	 2.429E+00	-3.725E-01	 2.822E+01	-2.361E+00	 6.002E+00	-1.175E+00	 2.614E+00	 4.389E+00	 4.572E+00	 4.022E+02	 8.772E+01	-3.020E+01	 4.152E+02	 1.747E+03	-1.322E+02	 2.319E+02	 1.880E+02	 3.534E+00	 1.614E+02	 8.353E+00	 5.816E+00
    7.3000	 1.241E+01	-5.436E-01	 0.000E+00	 2.420E+00	-3.912E-01	 2.761E+01	-2.145E+00	 5.726E+00	-1.179E+00	 2.731E+00	 4.548E+00	 5.130E+00	 4.512E+02	 8.730E+01	-3.359E+01	 4.544E+02	 1.740E+03	-1.060E+02	 2.450E+02	 1.848E+02	 3.121E+00	 1.571E+02	 8.130E+00	 5.866E+00
    7.3500	 1.245E+01	-5.886E-01	 0.000E+00	 2.408E+00	-4.069E-01	 2.741E+01	-2.310E+00	 5.579E+00	-1.193E+00	 2.850E+00	 4.187E+00	 4.838E+00	 4.256E+02	 8.731E+01	-3.668E+01	 4.877E+02	 1.736E+03	-7.853E+01	 2.551E+02	 1.831E+02	 2.948E+00	 1.541E+02	 6.574E+00	 5.925E+00
    7.4000	 1.250E+01	-6.340E-01	 0.000E+00	 2.394E+00	-4.197E-01	 2.748E+01	-2.570E+00	 5.491E+00	-1.214E+00	 2.964E+00	 3.629E+00	 4.152E+00	 3.652E+02	 8.738E+01	-3.944E+01	 5.160E+02	 1.731E+03	-5.011E+01	 2.621E+02	 1.826E+02	 2.847E+00	 1.527E+02	 4.337E+00	 5.991E+00
    7.4500	 1.255E+01	-6.827E-01	 0.000E+00	 2.377E+00	-4.306E-01	 2.745E+01	-2.636E+00	 5.513E+00	-1.241E+00	 3.071E+00	 3.371E+00	 3.852E+00	 3.388E+02	 8.736E+01	-4.182E+01	 5.408E+02	 1.723E+03	-2.103E+01	 2.659E+02	 1.832E+02	 2.591E+00	 1.535E+02	 2.381E+00	 6.073E+00
    7.5000	 1.260E+01	-7.318E-01	 0.000E+00	 2.358E+00	-4.405E-01	 2.723E+01	-2.451E+00	 5.592E+00	-1.257E+00	 3.177E+00	 3.630E+00	 4.144E+00	 3.646E+02	 8.723E+01	-4.377E+01	 5.617E+02	 1.714E+03	 8.435E+00	 2.664E+02	 1.846E+02	 1.911E+00	 1.564E+02	 1.478E+00	 6.165E+00
    7.5500	 1.265E+01	-7.846E-01	 0.000E+00	 2.338E+00	-4.489E-01	 2.697E+01	-2.295E+00	 5.655E+00	-1.260E+00	 3.289E+00	 4.078E+00	 4.662E+00	 4.101E+02	 8.711E+01	-4.526E+01	 5.772E+02	 1.705E+03	 3.794E+01	 2.635E+02	 1.872E+02	 7.343E-01	 1.611E+02	 1.655E+00	 6.278E+00
    7.6000	 1.270E+01	-8.378E-01	 0.000E+00	 2.318E+00	-4.550E-01	 2.679E+01	-2.266E+00	 5.654E+00	-1.250E+00	 3.412E+00	 4.292E+00	 4.920E+00	 4.328E+02	 8.713E+01	-4.629E+01	 5.864E+02	 1.697E+03	 6.702E+01	 2.572E+02	 1.909E+02	-6.773E-01	 1.671E+02	 2.090E+00	 6.405E+00
    7.6500	 1.275E+01	-8.945E-01	 0.000E+00	 2.298E+00	-4.583E-01	 2.664E+01	-2.443E+00	 5.636E+00	-1.233E+00	 3.541E+00	 4.120E+00	 4.764E+00	 4.191E+02	 8.731E+01	-4.685E+01	 5.889E+02	 1.692E+03	 9.512E+01	 2.476E+02	 1.959E+02	-1.855E+00	 1.739E+02	 1.665E+00	 6.553E+00
    7.7000	 1.281E+01	-9.516E-01	 0.000E+00	 2.279E+00	-4.593E-01	 2.639E+01	-2.613E+00	 5.651E+00	-1.219E+00	 3.668E+00	 3.808E+00	 4.410E+00	 3.879E+02	 8.757E+01	-4.694E+01	 5.858E+02	 1.687E+03	 1.218E+02	 2.350E+02	 2.020E+02	-2.499E+00	 1.815E+02	-1.588E-01	 6.715E+00
    7.7500	 1.287E+01	-1.012E+00	 0.000E+00	 2.261E+00	-4.589E-01	 2.598E+01	-2.636E+00	 5.716E+00	-1.210E+00	 3.792E+00	 3.617E+00	 4.204E+00	 3.698E+02	 8.779E+01	-4.655E+01	 5.782E+02	 1.682E+03	 1.468E+02	 2.196E+02	 2.089E+02	-2.733E+00	 1.900E+02	-2.857E+00	 6.896E+00
    7.8000	 1.292E+01	-1.074E+00	 0.000E+00	 2.245E+00	-4.574E-01	 2.549E+01	-2.508E+00	 5.774E+00	-1.203E+00	 3.915E+00	 3.653E+00	 4.247E+00	 3.736E+02	 8.796E+01	-4.571E+01	 5.662E+02	 1.677E+03	 1.699E+02	 2.016E+02	 2.162E+02	-3.044E+00	 1.996E+02	-5.183E+00	 7.086E+00
    7.8500	 1.298E+01	-1.139E+00	 0.000E+00	 2.229E+00	-4.544E-01	 2.504E+01	-2.356E+00	 5.789E+00	-1.193E+00	 4.042E+00	 3.810E+00	 4.434E+00	 3.900E+02	 8.811E+01	-4.443E+01	 5.494E+02	 1.673E+03	 1.910E+02	 1.810E+02	 2.239E+02	-3.845E+00	 2.102E+02	-6.166E+00	 7.289E+00
    7.9000	 1.304E+01	-1.204E+00	 0.000E+00	 2.215E+00	-4.496E-01	 2.471E+01	-2.291E+00	 5.750E+00	-1.181E+00	 4.173E+00	 3.977E+00	 4.628E+00	 4.071E+02	 8.825E+01	-4.268E+01	 5.268E+02	 1.668E+03	 2.097E+02	 1.580E+02	 2.319E+02	-5.113E+00	 2.215E+02	-5.889E+00	 7.496E+00
    7.9500	 1.310E+01	-1.274E+00	 0.000E+00	 2.200E+00	-4.426E-01	 2.450E+01	-2.352E+00	 5.698E+00	-1.168E+00	 4.310E+00	 4.070E+00	 4.747E+00	 4.176E+02	 8.838E+01	-4.045E+01	 4.983E+02	 1.664E+03	 2.257E+02	 1.330E+02	 2.402E+02	-6.408E+00	 2.328E+02	-5.371E+00	 7.715E+00
    8.0000	 1.316E+01	-1.343E+00	 0.000E+00	 2.186E+00	-4.337E-01	 2.432E+01	-2.420E+00	 5.648E+00	-1.164E+00	 4.450E+00	 4.123E+00	 4.824E+00	 4.243E+02	 8.842E+01	-3.777E+01	 4.644E+02	 1.659E+03	 2.386E+02	 1.065E+02	 2.487E+02	-7.226E+00	 2.437E+02	-5.726E+00	 7.940E+00
    8.0500	 1.323E+01	-1.417E+00	 0.000E+00	 2.171E+00	-4.229E-01	 2.418E+01	-2.491E+00	 5.604E+00	-1.172E+00	 4.594E+00	 4.165E+00	 4.893E+00	 4.304E+02	 8.835E+01	-3.467E+01	 4.255E+02	 1.653E+03	 2.483E+02	 7.877E+01	 2.573E+02	-7.419E+00	 2.542E+02	-7.246E+00	 8.180E+00
    8.1000	 1.329E+01	-1.491E+00	 0.000E+00	 2.156E+00	-4.106E-01	 2.410E+01	-2.595E+00	 5.534E+00	-1.189E+00	 4.741E+00	 4.189E+00	 4.937E+00	 4.343E+02	 8.816E+01	-3.120E+01	 3.822E+02	 1.646E+03	 2.549E+02	 5.026E+01	 2.655E+02	-7.293E+00	 2.643E+02	-9.194E+00	 8.424E+00
    8.1500	 1.336E+01	-1.569E+00	 0.000E+00	 2.141E+00	-3.967E-01	 2.416E+01	-2.748E+00	 5.437E+00	-1.212E+00	 4.891E+00	 4.213E+00	 4.980E+00	 4.381E+02	 8.790E+01	-2.743E+01	 3.352E+02	 1.637E+03	 2.584E+02	 2.114E+01	 2.734E+02	-7.309E+00	 2.741E+02	-1.045E+01	 8.682E+00
    8.2000	 1.342E+01	-1.648E+00	 0.000E+00	 2.126E+00	-3.817E-01	 2.434E+01	-2.899E+00	 5.312E+00	-1.240E+00	 5.044E+00	 4.295E+00	 5.081E+00	 4.469E+02	 8.757E+01	-2.342E+01	 2.856E+02	 1.628E+03	 2.587E+02	-8.306E+00	 2.805E+02	-7.710E+00	 2.836E+02	-1.041E+01	 8.943E+00
    8.2500	 1.349E+01	-1.731E+00	 0.000E+00	 2.110E+00	-3.662E-01	 2.458E+01	-2.974E+00	 5.185E+00	-1.275E+00	 5.201E+00	 4.522E+00	 5.339E+00	 4.696E+02	 8.720E+01	-1.920E+01	 2.340E+02	 1.619E+03	 2.557E+02	-3.769E+01	 2.871E+02	-8.329E+00	 2.925E+02	-9.399E+00	 9.215E+00
    8.3000	 1.355E+01	-1.814E+00	 0.000E+00	 2.094E+00	-3.505E-01	 2.478E+01	-2.978E+00	 5.049E+00	-1.317E+00	 5.365E+00	 4.825E+00	 5.694E+00	 5.008E+02	 8.678E+01	-1.481E+01	 1.808E+02	 1.610E+03	 2.494E+02	-6.652E+01	 2.930E+02	-8.788E+00	 3.004E+02	-8.337E+00	 9.486E+00
    8.3500	 1.362E+01	-1.901E+00	 0.000E+00	 2.079E+00	-3.345E-01	 2.492E+01	-2.987E+00	 4.906E+00	-1.373E+00	 5.536E+00	 5.062E+00	 5.982E+00	 5.262E+02	 8.633E+01	-1.030E+01	 1.262E+02	 1.600E+03	 2.400E+02	-9.432E+01	 2.982E+02	-8.796E+00	 3.070E+02	-7.989E+00	 9.766E+00
    8.4000	 1.369E+01	-1.989E+00	 0.000E+00	 2.065E+00	-3.182E-01	 2.501E+01	-3.062E+00	 4.750E+00	-1.441E+00	 5.714E+00	 5.143E+00	 6.093E+00	 5.360E+02	 8.587E+01	-5.739E+00	 7.061E+01	 1.591E+03	 2.276E+02	-1.208E+02	 3.026E+02	-8.347E+00	 3.122E+02	-8.446E+00	 1.004E+01
    8.4500	 1.376E+01	-2.081E+00	 0.000E+00	 2.051E+00	-3.018E-01	 2.513E+01	-3.195E+00	 4.604E+00	-1.521E+00	 5.896E+00	 5.121E+00	 6.099E+00	 5.365E+02	 8.543E+01	-1.171E+00	 1.466E+01	 1.583E+03	 2.124E+02	-1.457E+02	 3.061E+02	-7.681E+00	 3.163E+02	-9.132E+00	 1.032E+01
    8.5000	 1.383E+01	-2.174E+00	 0.000E+00	 2.039E+00	-2.858E-01	 2.526E+01	-3.319E+00	 4.476E+00	-1.606E+00	 6.080E+00	 5.139E+00	 6.145E+00	 5.406E+02	 8.500E+01	 3.350E+00	-4.059E+01	 1.575E+03	 1.944E+02	-1.688E+02	 3.086E+02	-7.113E+00	 3.194E+02	-9.267E+00	 1.060E+01
    8.5500	 1.390E+01	-2.271E+00	 0.000E+00	 2.028E+00	-2.706E-01	 2.539E+01	-3.381E+00	 4.383E+00	-1.693E+00	 6.268E+00	 5.313E+00	 6.361E+00	 5.595E+02	 8.459E+01	 7.781E+00	-9.431E+01	 1.568E+03	 1.739E+02	-1.898E+02	 3.099E+02	-6.798E+00	 3.213E+02	-8.456E+00	 1.089E+01
    8.6000	 1.397E+01	-2.368E+00	 0.000E+00	 2.018E+00	-2.566E-01	 2.542E+01	-3.392E+00	 4.318E+00	-1.778E+00	 6.462E+00	 5.622E+00	 6.719E+00	 5.910E+02	 8.421E+01	 1.208E+01	-1.461E+02	 1.562E+03	 1.510E+02	-2.086E+02	 3.102E+02	-6.655E+00	 3.221E+02	-6.936E+00	 1.117E+01
    8.6500	 1.404E+01	-2.470E+00	 0.000E+00	 2.010E+00	-2.440E-01	 2.537E+01	-3.425E+00	 4.281E+00	-1.860E+00	 6.665E+00	 5.924E+00	 7.080E+00	 6.228E+02	 8.387E+01	 1.618E+01	-1.956E+02	 1.558E+03	 1.261E+02	-2.246E+02	 3.095E+02	-6.444E+00	 3.214E+02	-5.377E+00	 1.145E+01
    8.7000	 1.411E+01	-2.572E+00	 0.000E+00	 2.004E+00	-2.326E-01	 2.524E+01	-3.529E+00	 4.263E+00	-1.937E+00	 6.875E+00	 6.096E+00	 7.299E+00	 6.420E+02	 8.359E+01	 2.001E+01	-2.425E+02	 1.554E+03	 9.955E+01	-2.377E+02	 3.078E+02	-5.954E+00	 3.192E+02	-4.389E+00	 1.174E+01
    8.7500	 1.418E+01	-2.678E+00	 0.000E+00	 1.999E+00	-2.226E-01	 2.509E+01	-3.698E+00	 4.281E+00	-2.007E+00	 7.091E+00	 6.116E+00	 7.358E+00	 6.472E+02	 8.335E+01	 2.353E+01	-2.860E+02	 1.552E+03	 7.169E+01	-2.477E+02	 3.051E+02	-5.148E+00	 3.156E+02	-4.109E+00	 1.202E+01
    8.8000	 1.425E+01	-2.786E+00	 0.000E+00	 1.995E+00	-2.144E-01	 2.495E+01	-3.860E+00	 4.334E+00	-2.074E+00	 7.310E+00	 6.094E+00	 7.363E+00	 6.477E+02	 8.313E+01	 2.668E+01	-3.249E+02	 1.549E+03	 4.285E+01	-2.544E+02	 3.014E+02	-4.191E+00	 3.108E+02	-4.135E+00	 1.231E+01
    8.8500	 1.432E+01	-2.897E+00	 0.000E+00	 1.992E+00	-2.086E-01	 2.481E+01	-3.955E+00	 4.435E+00	-2.124E+00	 7.532E+00	 6.141E+00	 7.446E+00	 6.550E+02	 8.293E+01	 2.940E+01	-3.584E+02	 1.548E+03	 1.329E+01	-2.578E+02	 2.967E+02	-3.343E+00	 3.050E+02	-3.844E+00	 1.260E+01
    8.9000	 1.439E+01	-3.009E+00	 0.000E+00	 1.989E+00	-2.052E-01	 2.463E+01	-3.967E+00	 4.567E+00	-2.160E+00	 7.758E+00	 6.303E+00	 7.645E+00	 6.725E+02	 8.273E+01	 3.167E+01	-3.860E+02	 1.546E+03	-1.670E+01	-2.577E+02	 2.911E+02	-2.774E+00	 2.982E+02	-2.865E+00	 1.289E+01
    8.9500	 1.446E+01	-3.125E+00	 0.000E+00	 1.986E+00	-2.043E-01	 2.443E+01	-3.957E+00	 4.722E+00	-2.177E+00	 7.990E+00	 6.487E+00	 7.835E+00	 6.892E+02	 8.248E+01	 3.344E+01	-4.074E+02	 1.544E+03	-4.666E+01	-2.542E+02	 2.846E+02	-2.468E+00	 2.904E+02	-1.326E+00	 1.319E+01
    9.0000	 1.453E+01	-3.243E+00	 0.000E+00	 1.982E+00	-2.057E-01	 2.420E+01	-3.963E+00	 4.883E+00	-2.181E+00	 8.228E+00	 6.602E+00	 8.016E+00	 7.051E+02	 8.232E+01	 3.467E+01	-4.226E+02	 1.542E+03	-7.613E+01	-2.472E+02	 2.773E+02	-2.191E+00	 2.817E+02	 1.675E-01	 1.349E+01
    9.0500	 1.461E+01	-3.363E+00	 0.000E+00	 1.976E+00	-2.092E-01	 2.401E+01	-3.983E+00	 5.050E+00	-2.169E+00	 8.471E+00	 6.621E+00	 8.057E+00	 7.087E+02	 8.200E+01	 3.539E+01	-4.316E+02	 1.538E+03	-1.047E+02	-2.367E+02	 2.695E+02	-1.749E+00	 2.721E+02	 1.069E+00	 1.380E+01
    9.1000	 1.468E+01	-3.485E+00	 0.000E+00	 1.969E+00	-2.147E-01	 2.383E+01	-3.998E+00	 5.213E+00	-2.144E+00	 8.717E+00	 6.560E+00	 8.001E+00	 7.038E+02	 8.161E+01	 3.558E+01	-4.342E+02	 1.533E+03	-1.318E+02	-2.229E+02	 2.612E+02	-1.095E+00	 2.617E+02	 1.248E+00	 1.411E+01
    9.1500	 1.475E+01	-3.611E+00	 0.000E+00	 1.958E+00	-2.222E-01	 2.371E+01	-3.996E+00	 5.370E+00	-2.109E+00	 8.966E+00	 6.450E+00	 7.908E+00	 6.956E+02	 8.114E+01	 3.521E+01	-4.301E+02	 1.525E+03	-1.573E+02	-2.060E+02	 2.525E+02	-3.946E-01	 2.508E+02	 1.087E+00	 1.444E+01
    9.2000	 1.482E+01	-3.738E+00	 0.000E+00	 1.945E+00	-2.314E-01	 2.363E+01	-3.971E+00	 5.504E+00	-2.056E+00	 9.215E+00	 6.328E+00	 7.802E+00	 6.863E+02	 8.055E+01	 3.430E+01	-4.193E+02	 1.515E+03	-1.808E+02	-1.861E+02	 2.435E+02	 9.729E-02	 2.396E+02	 1.164E+00	 1.477E+01
    9.2500	 1.489E+01	-3.869E+00	 0.000E+00	 1.927E+00	-2.424E-01	 2.359E+01	-3.911E+00	 5.611E+00	-1.985E+00	 9.466E+00	 6.235E+00	 7.729E+00	 6.799E+02	 7.985E+01	 3.283E+01	-4.018E+02	 1.503E+03	-2.020E+02	-1.635E+02	 2.342E+02	 2.530E-01	 2.285E+02	 1.767E+00	 1.511E+01
    9.3000	 1.496E+01	-4.001E+00	 0.000E+00	 1.906E+00	-2.549E-01	 2.357E+01	-3.802E+00	 5.686E+00	-1.901E+00	 9.719E+00	 6.181E+00	 7.686E+00	 6.761E+02	 7.904E+01	 3.083E+01	-3.777E+02	 1.488E+03	-2.205E+02	-1.383E+02	 2.249E+02	 1.440E-01	 2.174E+02	 2.692E+00	 1.545E+01
    9.3500	 1.503E+01	-4.137E+00	 0.000E+00	 1.880E+00	-2.687E-01	 2.356E+01	-3.655E+00	 5.724E+00	-1.809E+00	 9.974E+00	 6.097E+00	 7.628E+00	 6.710E+02	 7.802E+01	 2.834E+01	-3.476E+02	 1.470E+03	-2.359E+02	-1.110E+02	 2.156E+02	-2.882E-02	 2.065E+02	 3.428E+00	 1.581E+01
    9.4000	 1.509E+01	-4.274E+00	 0.000E+00	 1.850E+00	-2.835E-01	 2.354E+01	-3.492E+00	 5.695E+00	-1.709E+00	 1.023E+01	 5.908E+00	 7.485E+00	 6.584E+02	 7.691E+01	 2.536E+01	-3.119E+02	 1.449E+03	-2.480E+02	-8.188E+01	 2.066E+02	-1.127E-01	 1.959E+02	 3.551E+00	 1.618E+01
    9.4500	 1.516E+01	-4.415E+00	 0.000E+00	 1.816E+00	-2.988E-01	 2.353E+01	-3.307E+00	 5.628E+00	-1.608E+00	 1.049E+01	 5.667E+00	 7.237E+00	 6.366E+02	 7.581E+01	 2.196E+01	-2.713E+02	 1.427E+03	-2.565E+02	-5.150E+01	 1.979E+02	-9.662E-02	 1.857E+02	 3.009E+00	 1.655E+01
    9.5000	 1.523E+01	-4.556E+00	 0.000E+00	 1.777E+00	-3.145E-01	 2.351E+01	-3.117E+00	 5.541E+00	-1.504E+00	 1.074E+01	 5.365E+00	 6.919E+00	 6.087E+02	 7.471E+01	 1.817E+01	-2.266E+02	 1.403E+03	-2.613E+02	-2.020E+01	 1.896E+02	-1.208E-01	 1.761E+02	 2.146E+00	 1.694E+01
    9.5500	 1.529E+01	-4.702E+00	 0.000E+00	 1.735E+00	-3.302E-01	 2.345E+01	-2.919E+00	 5.430E+00	-1.395E+00	 1.100E+01	 5.039E+00	 6.583E+00	 5.790E+02	 7.360E+01	 1.405E+01	-1.781E+02	 1.377E+03	-2.623E+02	 1.160E+01	 1.817E+02	-3.666E-01	 1.672E+02	 1.413E+00	 1.733E+01
    9.6000	 1.536E+01	-4.849E+00	 0.000E+00	 1.690E+00	-3.459E-01	 2.334E+01	-2.678E+00	 5.291E+00	-1.288E+00	 1.125E+01	 4.790E+00	 6.299E+00	 5.541E+02	 7.247E+01	 9.687E+00	-1.267E+02	 1.350E+03	-2.593E+02	 4.344E+01	 1.742E+02	-8.906E-01	 1.591E+02	 1.003E+00	 1.773E+01
    9.6500	 1.542E+01	-4.998E+00	 0.000E+00	 1.642E+00	-3.615E-01	 2.314E+01	-2.403E+00	 5.105E+00	-1.185E+00	 1.150E+01	 4.581E+00	 6.085E+00	 5.353E+02	 7.125E+01	 5.150E+00	-7.312E+01	 1.322E+03	-2.525E+02	 7.478E+01	 1.673E+02	-1.607E+00	 1.518E+02	 7.597E-01	 1.815E+01
    9.7000	 1.549E+01	-5.150E+00	 0.000E+00	 1.592E+00	-3.767E-01	 2.282E+01	-2.111E+00	 4.866E+00	-1.091E+00	 1.175E+01	 4.381E+00	 5.857E+00	 5.152E+02	 7.022E+01	 4.728E-01	-1.820E+01	 1.294E+03	-2.417E+02	 1.051E+02	 1.610E+02	-2.380E+00	 1.452E+02	 3.305E-01	 1.856E+01
    9.7500	 1.555E+01	-5.304E+00	 0.000E+00	 1.540E+00	-3.911E-01	 2.250E+01	-1.850E+00	 4.616E+00	-9.993E-01	 1.200E+01	 4.039E+00	 5.535E+00	 4.869E+02	 6.916E+01	-4.230E+00	 3.682E+01	 1.266E+03	-2.271E+02	 1.338E+02	 1.552E+02	-3.079E+00	 1.393E+02	-5.620E-01	 1.899E+01
    9.8000	 1.561E+01	-5.460E+00	 0.000E+00	 1.487E+00	-4.045E-01	 2.206E+01	-1.594E+00	 4.368E+00	-9.153E-01	 1.224E+01	 3.645E+00	 5.148E+00	 4.528E+02	 6.818E+01	-8.903E+00	 9.124E+01	 1.238E+03	-2.090E+02	 1.605E+02	 1.501E+02	-3.668E+00	 1.341E+02	-1.937E+00	 1.942E+01
    9.8500	 1.567E+01	-5.619E+00	 0.000E+00	 1.433E+00	-4.167E-01	 2.149E+01	-1.340E+00	 4.116E+00	-8.341E-01	 1.248E+01	 3.235E+00	 4.704E+00	 4.138E+02	 6.729E+01	-1.348E+01	 1.443E+02	 1.210E+03	-1.876E+02	 1.848E+02	 1.455E+02	-4.258E+00	 1.295E+02	-3.489E+00	 1.985E+01
    9.9000	 1.573E+01	-5.780E+00	 0.000E+00	 1.380E+00	-4.278E-01	 2.083E+01	-1.085E+00	 3.868E+00	-7.523E-01	 1.272E+01	 2.867E+00	 4.289E+00	 3.773E+02	 6.648E+01	-1.789E+01	 1.954E+02	 1.183E+03	-1.632E+02	 2.062E+02	 1.415E+02	-4.966E+00	 1.257E+02	-4.837E+00	 2.029E+01
    9.9500	 1.579E+01	-5.943E+00	 0.000E+00	 1.327E+00	-4.375E-01	 2.011E+01	-8.297E-01	 3.642E+00	-6.682E-01	 1.295E+01	 2.554E+00	 3.956E+00	 3.480E+02	 6.576E+01	-2.208E+01	 2.436E+02	 1.157E+03	-1.362E+02	 2.245E+02	 1.380E+02	-5.844E+00	 1.227E+02	-5.773E+00	 2.075E+01
   10.0000	 1.585E+01	-6.108E+00	 0.000E+00	 1.275E+00	-4.456E-01	 1.930E+01	-5.925E-01	 3.438E+00	-5.818E-01	 1.318E+01	 2.263E+00	 3.670E+00	 3.228E+02	 6.514E+01	-2.596E+01	 2.882E+02	 1.132E+03	-1.070E+02	 2.394E+02	 1.351E+02	-6.845E+00	 1.204E+02	-6.383E+00	 2.120E+01
   10.0500	 1.590E+01	-6.276E+00	 0.000E+00	 1.225E+00	-4.511E-01	 1.885E+01	-3.371E-01	 3.447E+00	-5.132E-01	 1.336E+01	 2.190E+00	 3.143E+00	 2.765E+02	 6.480E+01	-2.948E+01	 3.285E+02	 1.109E+03	-7.606E+01	 2.506E+02	 1.328E+02	-7.896E+00	 1.187E+02	-6.933E+00	 2.167E+01
   10.1000	 1.596E+01	-6.445E+00	 0.000E+00	 1.177E+00	-4.551E-01	 1.809E+01	-1.408E-01	 3.350E+00	-4.136E-01	 1.353E+01	 1.815E+00	 2.799E+00	 2.462E+02	 6.429E+01	-3.261E+01	 3.644E+02	 1.086E+03	-4.405E+01	 2.579E+02	 1.311E+02	-8.721E+00	 1.175E+02	-7.816E+00	 2.216E+01
   10.1500	 1.601E+01	-6.617E+00	 0.000E+00	 1.132E+00	-4.576E-01	 1.696E+01	 9.675E-02	 3.261E+00	-3.311E-01	 1.369E+01	 1.587E+00	 2.587E+00	 2.276E+02	 6.386E+01	-3.524E+01	 3.947E+02	 1.065E+03	-1.138E+01	 2.611E+02	 1.301E+02	-9.340E+00	 1.170E+02	-9.011E+00	 2.266E+01