
Predictions were generated on 02-Jul-2014 at 13:23:22 using FAST (v8.08.00c-bjj, 30-June-2014), compiled for 32-bit systems using single precision
 linked with  NWTC Subroutine Library (v2.03.03b-bjj, 30-June-2014); ElastoDyn (v1.01.06b-bjj, 30-June-2014); InflowWind (v2.00.01b-bjj, 30-June-2014); AeroDyn (v14.02.01c-bjj, 30-June-2014); ServoDyn (v1.01.02a-bjj, 30-June-2014)

Description from the FAST input file: FAST Certification Test #02: AWT-27CR2 with many DOFs with startup and shutdown and steady wind

Time      	WindVxi   	WindVyi   	WindVzi   	Spn1ALxb1 	Spn1ALyb1 	Spn1ALzb1 	RotSpeed  	LSSGagVxa 	RootFxb1  	RootFyb1  	RootFxb2  	RootFyb2  	RootMIP2  	RootMOoP2 	Spn1MLxb1 	Spn1MLyb1 	RotTorq   	LSSTipMys 	LSSTipMzs 	LSSGagMya 	LSSGagMza 	HSShftTq  	HSShftPwr 	GenTq     	GenPwr    
(s)       	(m/s)     	(m/s)     	(m/s)     	(m/s^2)   	(m/s^2)   	(m/s^2)   	(rpm)     	(rpm)     	(kN)      	(kN)      	(kN)      	(kN)      	(kN·m)    	(kN·m)    	(kN·m)    	(kN·m)    	(kN·m)    	(kN·m)    	(kN·m)    	(kN·m)    	(kN·m)    	(kN·m)    	(kW)      	(kN·m)    	(kW)      
    5.0000	 1.200E+01	 0.000E+00	 0.000E+00	 2.734E-02	 7.010E-03	-1.174E-02	 1.795E-01	 1.794E-01	 3.278E+00	-3.188E-01	 2.891E+00	 1.307E-01	-1.026E+00	 1.549E+01	-2.102E-01	 3.925E+00	 3.513E-02	 3.459E+00	-3.312E-01	 7.951E+00	-7.426E-01	 1.561E-03	 6.602E-04	 0.000E+00	 0.000E+00
    5.0400	 1.200E+01	 0.000E+00	 0.000E+00	 2.861E-02	 7.786E-03	-6.684E-03	 1.799E-01	 1.799E-01	 3.286E+00	-3.223E-01	 2.901E+00	 1.334E-01	-1.037E+00	 1.555E+01	-2.073E-01	 3.945E+00	 3.768E-02	 3.442E+00	-3.387E-01	 7.935E+00	-7.550E-01	 1.675E-03	 7.099E-04	 0.000E+00	 0.000E+00
    5.0800	 1.200E+01	 0.000E+00	 0.000E+00	 2.866E-02	 8.425E-03	-4.467E-03	 1.804E-01	 1.804E-01	 3.294E+00	-3.258E-01	 2.912E+00	 1.362E-01	-1.050E+00	 1.561E+01	-2.043E-01	 3.959E+00	 3.761E-02	 3.426E+00	-3.451E-01	 7.919E+00	-7.662E-01	 1.672E-03	 7.105E-04	 0.000E+00	 0.000E+00
    5.1200	 1.200E+01	 0.000E+00	 0.000E+00	 2.693E-02	 8.636E-03	-5.470E-03	 1.808E-01	 1.808E-01	 3.301E+00	-3.291E-01	 2.922E+00	 1.392E-01	-1.065E+00	 1.565E+01	-2.010E-01	 3.964E+00	 3.420E-02	 3.410E+00	-3.497E-01	 7.903E+00	-7.758E-01	 1.520E-03	 6.476E-04	 0.000E+00	 0.000E+00
    5.1600	 1.200E+01	 0.000E+00	 0.000E+00	 2.465E-02	 8.663E-03	-9.389E-03	 1.812E-01	 1.812E-01	 3.308E+00	-3.324E-01	 2.931E+00	 1.423E-01	-1.081E+00	 1.567E+01	-1.976E-01	 3.963E+00	 2.812E-02	 3.395E+00	-3.530E-01	 7.887E+00	-7.840E-01	 1.250E-03	 5.337E-04	 0.000E+00	 0.000E+00
    5.2000	 1.200E+01	 0.000E+00	 0.000E+00	 1.987E-02	 8.515E-03	-1.589E-02	 1.815E-01	 1.816E-01	 3.316E+00	-3.356E-01	 2.941E+00	 1.455E-01	-1.098E+00	 1.570E+01	-1.943E-01	 3.960E+00	 2.078E-02	 3.380E+00	-3.557E-01	 7.871E+00	-7.917E-01	 9.237E-04	 3.951E-04	 0.000E+00	 0.000E+00
    5.2400	 1.200E+01	 0.000E+00	 0.000E+00	 1.077E-02	 7.776E-03	-2.460E-02	 1.818E-01	 1.818E-01	 3.326E+00	-3.389E-01	 2.954E+00	 1.487E-01	-1.115E+00	 1.574E+01	-1.911E-01	 3.960E+00	 1.425E-02	 3.366E+00	-3.588E-01	 7.857E+00	-7.998E-01	 6.333E-04	 2.712E-04	 0.000E+00	 0.000E+00
    5.2800	 1.200E+01	 0.000E+00	 0.000E+00	-5.932E-03	 6.444E-03	-3.476E-02	 1.819E-01	 1.819E-01	 3.340E+00	-3.424E-01	 2.969E+00	 1.516E-01	-1.131E+00	 1.580E+01	-1.885E-01	 3.970E+00	 1.007E-02	 3.353E+00	-3.631E-01	 7.844E+00	-8.093E-01	 4.475E-04	 1.918E-04	 0.000E+00	 0.000E+00
    5.3200	 1.200E+01	 0.000E+00	 0.000E+00	-2.736E-02	 4.783E-03	-4.562E-02	 1.820E-01	 1.820E-01	 3.357E+00	-3.462E-01	 2.988E+00	 1.545E-01	-1.145E+00	 1.589E+01	-1.863E-01	 3.992E+00	 8.996E-03	 3.341E+00	-3.692E-01	 7.833E+00	-8.204E-01	 3.998E-04	 1.715E-04	 0.000E+00	 0.000E+00
    5.3600	 1.200E+01	 0.000E+00	 0.000E+00	-5.374E-02	 2.615E-03	-5.658E-02	 1.822E-01	 1.822E-01	 3.376E+00	-3.501E-01	 3.009E+00	 1.571E-01	-1.158E+00	 1.600E+01	-1.846E-01	 4.022E+00	 1.045E-02	 3.330E+00	-3.765E-01	 7.823E+00	-8.330E-01	 4.645E-04	 1.994E-04	 0.000E+00	 0.000E+00
    5.4000	 1.200E+01	 0.000E+00	 0.000E+00	-8.093E-02	 5.741E-04	-6.692E-02	 1.823E-01	 1.823E-01	 3.396E+00	-3.541E-01	 3.031E+00	 1.597E-01	-1.170E+00	 1.612E+01	-1.832E-01	 4.058E+00	 1.327E-02	 3.320E+00	-3.847E-01	 7.814E+00	-8.464E-01	 5.897E-04	 2.533E-04	 0.000E+00	 0.000E+00
    5.4400	 1.200E+01	 0.000E+00	 0.000E+00	-1.051E-01	-1.231E-03	-7.607E-02	 1.825E-01	 1.825E-01	 3.416E+00	-3.581E-01	 3.052E+00	 1.624E-01	-1.183E+00	 1.624E+01	-1.816E-01	 4.091E+00	 1.571E-02	 3.310E+00	-3.927E-01	 7.806E+00	-8.597E-01	 6.980E-04	 3.002E-04	 0.000E+00	 0.000E+00
    5.4800	 1.200E+01	 0.000E+00	 0.000E+00	-1.238E-01	-2.401E-03	-8.363E-02	 1.827E-01	 1.827E-01	 3.432E+00	-3.620E-01	 3.070E+00	 1.651E-01	-1.196E+00	 1.633E+01	-1.796E-01	 4.117E+00	 1.632E-02	 3.302E+00	-3.996E-01	 7.798E+00	-8.719E-01	 7.252E-04	 3.122E-04	 0.000E+00	 0.000E+00
    5.5200	 1.200E+01	 0.000E+00	 0.000E+00	-1.354E-01	-3.173E-03	-8.919E-02	 1.829E-01	 1.829E-01	 3.444E+00	-3.656E-01	 3.085E+00	 1.680E-01	-1.210E+00	 1.640E+01	-1.771E-01	 4.132E+00	 1.408E-02	 3.293E+00	-4.049E-01	 7.790E+00	-8.825E-01	 6.259E-04	 2.698E-04	 0.000E+00	 0.000E+00
    5.5600	 1.200E+01	 0.000E+00	 0.000E+00	-1.380E-01	-2.862E-03	-9.225E-02	 1.830E-01	 1.831E-01	 3.453E+00	-3.690E-01	 3.094E+00	 1.711E-01	-1.226E+00	 1.643E+01	-1.739E-01	 4.137E+00	 9.372E-03	 3.285E+00	-4.089E-01	 7.781E+00	-8.918E-01	 4.165E-04	 1.797E-04	 0.000E+00	 0.000E+00
    5.6000	 1.200E+01	 0.000E+00	 0.000E+00	-1.341E-01	-2.011E-03	-9.273E-02	 1.831E-01	 1.831E-01	 3.458E+00	-3.723E-01	 3.101E+00	 1.743E-01	-1.242E+00	 1.645E+01	-1.704E-01	 4.134E+00	 3.200E-03	 3.277E+00	-4.119E-01	 7.772E+00	-9.001E-01	 1.422E-04	 6.138E-05	 0.000E+00	 0.000E+00
    5.6400	 1.200E+01	 0.000E+00	 0.000E+00	-1.250E-01	-6.991E-04	-9.054E-02	 1.831E-01	 1.831E-01	 3.460E+00	-3.756E-01	 3.105E+00	 1.775E-01	-1.259E+00	 1.645E+01	-1.665E-01	 4.129E+00	-3.152E-03	 3.268E+00	-4.148E-01	 7.763E+00	-9.082E-01	-1.401E-04	-6.046E-05	 0.000E+00	 0.000E+00
    5.6800	 1.200E+01	 0.000E+00	 0.000E+00	-1.142E-01	 8.548E-04	-8.579E-02	 1.830E-01	 1.831E-01	 3.462E+00	-3.788E-01	 3.108E+00	 1.806E-01	-1.274E+00	 1.645E+01	-1.624E-01	 4.124E+00	-8.426E-03	 3.260E+00	-4.184E-01	 7.753E+00	-9.169E-01	-3.745E-04	-1.615E-04	 0.000E+00	 0.000E+00
    5.7200	 1.200E+01	 0.000E+00	 0.000E+00	-1.006E-01	 2.824E-03	-7.847E-02	 1.829E-01	 1.829E-01	 3.464E+00	-3.821E-01	 3.112E+00	 1.838E-01	-1.289E+00	 1.646E+01	-1.585E-01	 4.125E+00	-1.200E-02	 3.251E+00	-4.229E-01	 7.743E+00	-9.266E-01	-5.332E-04	-2.298E-04	 0.000E+00	 0.000E+00
    5.7600	 1.200E+01	 0.000E+00	 0.000E+00	-8.736E-02	 4.689E-03	-6.933E-02	 1.828E-01	 1.828E-01	 3.466E+00	-3.855E-01	 3.115E+00	 1.867E-01	-1.303E+00	 1.648E+01	-1.546E-01	 4.129E+00	-1.375E-02	 3.241E+00	-4.285E-01	 7.732E+00	-9.372E-01	-6.113E-04	-2.632E-04	 0.000E+00	 0.000E+00
    5.8000	 1.200E+01	 0.000E+00	 0.000E+00	-7.500E-02	 6.794E-03	-5.882E-02	 1.826E-01	 1.826E-01	 3.467E+00	-3.889E-01	 3.118E+00	 1.897E-01	-1.316E+00	 1.650E+01	-1.508E-01	 4.136E+00	-1.437E-02	 3.230E+00	-4.348E-01	 7.721E+00	-9.485E-01	-6.388E-04	-2.748E-04	 0.000E+00	 0.000E+00
    5.8400	 1.200E+01	 0.000E+00	 0.000E+00	-6.045E-02	 8.965E-03	-4.759E-02	 1.824E-01	 1.824E-01	 3.467E+00	-3.922E-01	 3.121E+00	 1.926E-01	-1.329E+00	 1.652E+01	-1.469E-01	 4.143E+00	-1.514E-02	 3.219E+00	-4.411E-01	 7.709E+00	-9.596E-01	-6.728E-04	-2.891E-04	 0.000E+00	 0.000E+00
    5.8800	 1.200E+01	 0.000E+00	 0.000E+00	-4.341E-02	 1.128E-02	-3.627E-02	 1.822E-01	 1.822E-01	 3.467E+00	-3.955E-01	 3.123E+00	 1.956E-01	-1.342E+00	 1.653E+01	-1.429E-01	 4.145E+00	-1.697E-02	 3.207E+00	-4.468E-01	 7.696E+00	-9.701E-01	-7.542E-04	-3.238E-04	 0.000E+00	 0.000E+00
    5.9200	 1.200E+01	 0.000E+00	 0.000E+00	-2.705E-02	 1.348E-02	-2.581E-02	 1.819E-01	 1.820E-01	 3.466E+00	-3.986E-01	 3.123E+00	 1.987E-01	-1.357E+00	 1.653E+01	-1.387E-01	 4.143E+00	-2.048E-02	 3.195E+00	-4.516E-01	 7.682E+00	-9.796E-01	-9.100E-04	-3.902E-04	 0.000E+00	 0.000E+00
    5.9600	 1.200E+01	 0.000E+00	 0.000E+00	-8.150E-03	 1.583E-02	-1.653E-02	 1.816E-01	 1.817E-01	 3.465E+00	-4.018E-01	 3.123E+00	 2.019E-01	-1.372E+00	 1.652E+01	-1.343E-01	 4.135E+00	-2.572E-02	 3.182E+00	-4.554E-01	 7.667E+00	-9.881E-01	-1.143E-03	-4.893E-04	 0.000E+00	 0.000E+00
    6.0000	 1.200E+01	 0.000E+00	 0.000E+00	 7.893E-03	 1.778E-02	-9.250E-03	 1.813E-01	 1.813E-01	 3.463E+00	-4.048E-01	 3.124E+00	 2.051E-01	-1.387E+00	 1.651E+01	-1.299E-01	 4.125E+00	-3.191E-02	 3.168E+00	-4.586E-01	 7.652E+00	-9.959E-01	-1.418E-03	-6.058E-04	-1.104E+01	-3.045E+03
    6.0400	 1.200E+01	 0.000E+00	 0.000E+00	-8.241E-02	-2.743E+01	-1.048E-01	 1.793E+00	 2.461E+00	 4.605E+00	 1.027E+01	 4.284E+00	 1.272E+01	-8.903E+01	 2.465E+01	-2.426E+01	 3.837E+00	-1.638E+02	-4.400E+00	 9.582E+01	 7.694E+00	 9.488E+01	-7.278E+00	-4.221E+01	-1.130E+01	-3.046E+03
    6.0800	 1.200E+01	 0.000E+00	 0.000E+00	 6.268E+00	-2.903E+01	-6.151E-01	 3.350E+00	 3.380E+00	 3.397E+00	 1.113E+01	 3.128E+00	 1.348E+01	-9.561E+01	 1.762E+01	-2.557E+01	 3.162E+00	-1.749E+02	-6.029E+00	 1.033E+02	 7.546E+00	 1.026E+02	-7.773E+00	-6.190E+01	-1.141E+01	-3.046E+03
    6.1200	 1.200E+01	 0.000E+00	 0.000E+00	 3.511E+00	-2.126E+01	-1.311E+00	 5.123E+00	 4.891E+00	 3.174E+00	 7.634E+00	 2.963E+00	 9.057E+00	-5.877E+01	 1.335E+01	-1.531E+01	 1.328E+00	-1.112E+02	-3.990E+00	 6.625E+01	 7.493E+00	 6.563E+01	-4.941E+00	-5.694E+01	-1.160E+01	-3.045E+03
    6.1600	 1.200E+01	 0.000E+00	 0.000E+00	 5.489E-01	-2.110E+01	-2.241E+00	 6.813E+00	 6.853E+00	 3.466E+00	 7.460E+00	 3.195E+00	 9.861E+00	-6.503E+01	 1.341E+01	-1.639E+01	-3.225E-01	-1.187E+02	-6.442E+00	 7.002E+01	 7.245E+00	 6.909E+01	-5.276E+00	-8.519E+01	-1.184E+01	-3.043E+03
    6.2000	 1.200E+01	 0.000E+00	 0.000E+00	 5.987E+00	-2.369E+01	-3.463E+00	 8.477E+00	 8.577E+00	 2.588E+00	 8.615E+00	 2.309E+00	 1.206E+01	-8.321E+01	 9.467E+00	-1.921E+01	-5.427E-01	-1.450E+02	-1.160E+01	 8.491E+01	 6.687E+00	 8.436E+01	-6.443E+00	-1.302E+02	-1.205E+01	-3.040E+03
    6.2400	 1.200E+01	 0.000E+00	 0.000E+00	 5.598E+00	-2.540E+01	-4.850E+00	 1.019E+01	 1.019E+01	 2.768E+00	 9.110E+00	 2.637E+00	 1.180E+01	-8.037E+01	 1.143E+01	-1.997E+01	-1.301E-01	-1.446E+02	-1.568E+01	 8.533E+01	 6.247E+00	 8.565E+01	-6.428E+00	-1.543E+02	-1.226E+01	-3.035E+03
    6.2800	 1.200E+01	 0.000E+00	 0.000E+00	 2.912E+00	-2.513E+01	-6.751E+00	 1.197E+01	 1.194E+01	 3.396E+00	 8.661E+00	 3.432E+00	 1.136E+01	-7.519E+01	 1.637E+01	-1.952E+01	 7.679E-01	-1.374E+02	-1.943E+01	 8.018E+01	 5.507E+00	 8.113E+01	-6.107E+00	-1.718E+02	-1.248E+01	-3.029E+03
    6.3200	 1.200E+01	 0.000E+00	 0.000E+00	 4.732E+00	-2.395E+01	-9.006E+00	 1.378E+01	 1.379E+01	 3.255E+00	 7.940E+00	 3.402E+00	 1.240E+01	-8.253E+01	 1.821E+01	-1.796E+01	 2.169E+00	-1.406E+02	-2.479E+01	 7.859E+01	 4.352E+00	 8.048E+01	-6.247E+00	-2.030E+02	-1.272E+01	-3.020E+03
    6.3600	 1.200E+01	 0.000E+00	 0.000E+00	 4.904E+00	-2.528E+01	-1.126E+01	 1.559E+01	 1.563E+01	 3.440E+00	 8.226E+00	 3.774E+00	 1.322E+01	-8.862E+01	 2.169E+01	-1.867E+01	 3.190E+00	-1.488E+02	-3.239E+01	 8.046E+01	 3.131E+00	 8.466E+01	-6.615E+00	-2.436E+02	-1.295E+01	-3.008E+03
    6.4000	 1.200E+01	 0.000E+00	 0.000E+00	 4.506E+00	-2.785E+01	-1.408E+01	 1.742E+01	 1.744E+01	 3.654E+00	 8.998E+00	 4.272E+00	 1.316E+01	-8.679E+01	 2.489E+01	-2.114E+01	 3.424E+00	-1.534E+02	-4.085E+01	 8.032E+01	 1.489E+00	 8.802E+01	-6.818E+00	-2.802E+02	-1.318E+01	-2.994E+03
    6.4400	 1.200E+01	 0.000E+00	 0.000E+00	 6.624E+00	-2.820E+01	-1.773E+01	 1.926E+01	 1.928E+01	 3.171E+00	 8.895E+00	 4.053E+00	 1.363E+01	-8.872E+01	 2.408E+01	-2.131E+01	 2.971E+00	-1.562E+02	-4.888E+01	 7.600E+01	-8.569E-01	 8.779E+01	-6.944E+00	-3.154E+02	-1.340E+01	-2.975E+03
    6.4800	 1.200E+01	 0.000E+00	 0.000E+00	 7.882E+00	-2.808E+01	-2.162E+01	 2.110E+01	 2.112E+01	 2.664E+00	 8.546E+00	 3.854E+00	 1.468E+01	-9.579E+01	 2.274E+01	-2.039E+01	 1.877E+00	-1.623E+02	-5.756E+01	 7.063E+01	-3.554E+00	 8.790E+01	-7.213E+00	-3.590E+02	-1.362E+01	-2.952E+03
    6.5200	 1.200E+01	 0.000E+00	 0.000E+00	 9.087E+00	-3.012E+01	-2.583E+01	 2.290E+01	 2.294E+01	 2.221E+00	 9.077E+00	 3.844E+00	 1.521E+01	-9.871E+01	 2.191E+01	-2.176E+01	 5.369E-01	-1.705E+02	-6.782E+01	 6.534E+01	-6.521E+00	 9.055E+01	-7.576E+00	-4.094E+02	-1.382E+01	-2.925E+03
    6.5600	 1.200E+01	 0.000E+00	 0.000E+00	 1.191E+01	-3.240E+01	-3.091E+01	 2.466E+01	 2.470E+01	 1.529E+00	 9.764E+00	 3.633E+00	 1.554E+01	-9.976E+01	 2.055E+01	-2.377E+01	-5.639E-01	-1.785E+02	-7.784E+01	 5.748E+01	-1.002E+01	 9.263E+01	-7.933E+00	-4.616E+02	-1.399E+01	-2.893E+03
    6.6000	 1.200E+01	 0.000E+00	 0.000E+00	 1.376E+01	-3.313E+01	-3.674E+01	 2.637E+01	 2.641E+01	 9.991E-01	 9.745E+00	 3.547E+00	 1.637E+01	-1.049E+02	 2.080E+01	-2.375E+01	-1.234E+00	-1.859E+02	-8.533E+01	 4.557E+01	-1.399E+01	 9.163E+01	-8.261E+00	-5.140E+02	-1.414E+01	-2.855E+03
    6.6400	 1.200E+01	 0.000E+00	 0.000E+00	 1.471E+01	-3.406E+01	-4.298E+01	 2.803E+01	 2.806E+01	 7.720E-01	 9.738E+00	 3.805E+00	 1.714E+01	-1.098E+02	 2.348E+01	-2.359E+01	-1.329E+00	-1.932E+02	-9.056E+01	 3.121E+01	-1.822E+01	 8.954E+01	-8.585E+00	-5.676E+02	-1.425E+01	-2.811E+03
    6.6800	 1.200E+01	 0.000E+00	 0.000E+00	 1.685E+01	-3.622E+01	-4.982E+01	 2.961E+01	 2.965E+01	 5.271E-01	 1.034E+01	 4.203E+00	 1.739E+01	-1.108E+02	 2.706E+01	-2.524E+01	-7.737E-01	-2.012E+02	-9.414E+01	 1.563E+01	-2.268E+01	 8.807E+01	-8.941E+00	-6.246E+02	-1.433E+01	-2.762E+03
    6.7200	 1.200E+01	 0.000E+00	 0.000E+00	 1.936E+01	-3.802E+01	-5.755E+01	 3.111E+01	 3.115E+01	 2.337E-01	 1.087E+01	 4.600E+00	 1.756E+01	-1.114E+02	 3.073E+01	-2.678E+01	-6.490E-03	-2.086E+02	-9.371E+01	-1.494E+00	-2.736E+01	 8.495E+01	-9.271E+00	-6.804E+02	-1.436E+01	-2.708E+03
    6.7600	 1.200E+01	 0.000E+00	 0.000E+00	 2.144E+01	-3.877E+01	-6.598E+01	 3.255E+01	 3.257E+01	-7.374E-02	 1.101E+01	 4.995E+00	 1.774E+01	-1.124E+02	 3.377E+01	-2.712E+01	 4.347E-01	-2.136E+02	-8.754E+01	-1.915E+01	-3.203E+01	 7.893E+01	-9.493E+00	-7.285E+02	-1.435E+01	-2.649E+03
    6.8000	 1.200E+01	 0.000E+00	 0.000E+00	 2.406E+01	-3.949E+01	-7.485E+01	 3.392E+01	 3.393E+01	-5.777E-01	 1.126E+01	 5.201E+00	 1.755E+01	-1.108E+02	 3.473E+01	-2.771E+01	 2.103E-01	-2.166E+02	-7.684E+01	-3.531E+01	-3.645E+01	 7.169E+01	-9.628E+00	-7.698E+02	-1.429E+01	-2.583E+03
    6.8400	 1.200E+01	 0.000E+00	 0.000E+00	 2.737E+01	-4.015E+01	-8.418E+01	 3.524E+01	 3.524E+01	-1.337E+00	 1.165E+01	 5.116E+00	 1.704E+01	-1.071E+02	 3.311E+01	-2.871E+01	-8.019E-01	-2.183E+02	-6.242E+01	-4.857E+01	-4.047E+01	 6.373E+01	-9.704E+00	-8.058E+02	-1.419E+01	-2.512E+03
    6.8800	 1.200E+01	 0.000E+00	 0.000E+00	 3.047E+01	-3.979E+01	-9.401E+01	 3.652E+01	 3.651E+01	-2.250E+00	 1.171E+01	 4.771E+00	 1.648E+01	-1.034E+02	 2.940E+01	-2.865E+01	-2.403E+00	-2.170E+02	-4.404E+01	-5.755E+01	-4.400E+01	 5.394E+01	-9.646E+00	-8.298E+02	-1.402E+01	-2.433E+03
    6.9200	 1.200E+01	 0.000E+00	 0.000E+00	 3.333E+01	-3.840E+01	-1.041E+02	 3.779E+01	 3.776E+01	-3.161E+00	 1.143E+01	 4.289E+00	 1.580E+01	-9.915E+01	 2.464E+01	-2.758E+01	-4.176E+00	-2.117E+02	-2.334E+01	-6.099E+01	-4.680E+01	 4.277E+01	-9.409E+00	-8.372E+02	-1.380E+01	-2.346E+03
    6.9600	 1.200E+01	 0.000E+00	 0.000E+00	 3.572E+01	-3.667E+01	-1.141E+02	 3.907E+01	 3.903E+01	-3.916E+00	 1.111E+01	 3.839E+00	 1.482E+01	-9.292E+01	 2.019E+01	-2.647E+01	-5.532E+00	-2.032E+02	-3.127E+00	-5.873E+01	-4.868E+01	 3.173E+01	-9.030E+00	-8.304E+02	-1.350E+01	-2.246E+03
    7.0000	 1.200E+01	 0.000E+00	 0.000E+00	 3.753E+01	-3.469E+01	-1.242E+02	 4.038E+01	 4.032E+01	-4.388E+00	 1.073E+01	 3.531E+00	 1.360E+01	-8.526E+01	 1.711E+01	-2.518E+01	-6.026E+00	-1.917E+02	 1.461E+01	-5.129E+01	-4.956E+01	 2.143E+01	-8.519E+00	-8.094E+02	-1.309E+01	-2.131E+03
    7.0400	 1.200E+01	 0.000E+00	 0.000E+00	 3.840E+01	-3.233E+01	-1.343E+02	 4.173E+01	 4.166E+01	-4.476E+00	 1.011E+01	 3.399E+00	 1.223E+01	-7.695E+01	 1.586E+01	-2.286E+01	-5.550E+00	-1.759E+02	 2.843E+01	-3.959E+01	-4.937E+01	 1.199E+01	-7.819E+00	-7.674E+02	-1.256E+01	-1.998E+03
    7.0800	 1.200E+01	 0.000E+00	 0.000E+00	 3.835E+01	-2.916E+01	-1.443E+02	 4.313E+01	 4.304E+01	-4.160E+00	 9.292E+00	 3.446E+00	 1.063E+01	-6.739E+01	 1.638E+01	-2.028E+01	-4.269E+00	-1.566E+02	 3.687E+01	-2.571E+01	-4.804E+01	 4.371E+00	-6.960E+00	-7.058E+02	-1.187E+01	-1.842E+03
    7.1200	 1.200E+01	 0.000E+00	 0.000E+00	 3.778E+01	-2.616E+01	-1.539E+02	 4.455E+01	 4.445E+01	-3.555E+00	 8.761E+00	 3.609E+00	 8.628E+00	-5.531E+01	 1.810E+01	-1.888E+01	-2.409E+00	-1.369E+02	 3.940E+01	-1.251E+01	-4.552E+01	-2.071E-01	-6.084E+00	-6.372E+02	-1.099E+01	-1.663E+03
    7.1600	 1.200E+01	 0.000E+00	 0.000E+00	 3.691E+01	-2.295E+01	-1.630E+02	 4.593E+01	 4.584E+01	-2.759E+00	 8.353E+00	 3.765E+00	 6.415E+00	-4.209E+01	 2.031E+01	-1.799E+01	-2.044E-01	-1.168E+02	 3.707E+01	-1.605E+00	-4.186E+01	-2.131E+00	-5.193E+00	-5.608E+02	-9.939E+00	-1.465E+03
    7.2000	 1.200E+01	 0.000E+00	 0.000E+00	 3.551E+01	-1.975E+01	-1.713E+02	 4.725E+01	 4.715E+01	-1.782E+00	 7.998E+00	 3.944E+00	 4.173E+00	-2.906E+01	 2.291E+01	-1.692E+01	 2.239E+00	-9.705E+01	 3.138E+01	 5.900E+00	-3.706E+01	-1.916E+00	-4.313E+00	-4.792E+02	-8.738E+00	-1.256E+03
    7.2400	 1.200E+01	 0.000E+00	 0.000E+00	 3.358E+01	-1.688E+01	-1.787E+02	 4.846E+01	 4.837E+01	-6.319E-01	 7.580E+00	 4.096E+00	 2.064E+00	-1.687E+01	 2.591E+01	-1.513E+01	 4.839E+00	-7.705E+01	 2.403E+01	 9.517E+00	-3.125E+01	-1.520E-01	-3.424E+00	-3.903E+02	-7.443E+00	-1.046E+03
    7.2800	 1.200E+01	 0.000E+00	 0.000E+00	 3.100E+01	-1.409E+01	-1.851E+02	 4.955E+01	 4.945E+01	 6.846E-01	 6.991E+00	 4.234E+00	 2.230E-01	-6.360E+00	 2.953E+01	-1.272E+01	 7.524E+00	-5.739E+01	 1.674E+01	 9.494E+00	-2.464E+01	 2.514E+00	-2.551E+00	-2.972E+02	-6.114E+00	-8.417E+02
    7.3200	 1.200E+01	 0.000E+00	 0.000E+00	 2.835E+01	-1.143E+01	-1.905E+02	 5.048E+01	 5.040E+01	 2.076E+00	 6.469E+00	 4.437E+00	-1.398E+00	 2.967E+00	 3.381E+01	-1.095E+01	 1.035E+01	-4.049E+01	 1.090E+01	 6.519E+00	-1.754E+01	 5.708E+00	-1.799E+00	-2.137E+02	-4.824E+00	-6.525E+02
    7.3600	 1.200E+01	 0.000E+00	 0.000E+00	 2.529E+01	-9.264E+00	-1.950E+02	 5.124E+01	 5.118E+01	 3.551E+00	 6.153E+00	 4.718E+00	-2.778E+00	 1.120E+01	 3.857E+01	-1.029E+01	 1.299E+01	-2.771E+01	 7.277E+00	 1.781E+00	-1.020E+01	 8.864E+00	-1.232E+00	-1.485E+02	-3.660E+00	-4.886E+02
    7.4000	 1.200E+01	 0.000E+00	 0.000E+00	 2.197E+01	-7.303E+00	-1.990E+02	 5.184E+01	 5.180E+01	 4.952E+00	 5.783E+00	 4.905E+00	-3.680E+00	 1.651E+01	 4.278E+01	-9.737E+00	 1.499E+01	-1.840E+01	 5.755E+00	-3.176E+00	-3.096E+00	 1.102E+01	-8.177E-01	-9.979E+01	-2.683E+00	-3.553E+02
    7.4400	 1.200E+01	 0.000E+00	 0.000E+00	 1.932E+01	-5.251E+00	-2.024E+02	 5.229E+01	 5.226E+01	 6.052E+00	 5.185E+00	 4.955E+00	-4.007E+00	 1.819E+01	 4.525E+01	-8.708E+00	 1.623E+01	-1.161E+01	 5.813E+00	-7.466E+00	 3.438E+00	 1.174E+01	-5.160E-01	-6.354E+01	-1.907E+00	-2.519E+02
    7.4800	 1.200E+01	 0.000E+00	 0.000E+00	 1.765E+01	-3.343E+00	-2.054E+02	 5.263E+01	 5.261E+01	 6.673E+00	 4.497E+00	 4.772E+00	-3.984E+00	 1.804E+01	 4.499E+01	-7.543E+00	 1.672E+01	-6.534E+00	 7.331E+00	-1.087E+01	 9.308E+00	 1.153E+01	-2.904E-01	-3.599E+01	-1.313E+00	-1.741E+02
    7.5200	 1.200E+01	 0.000E+00	 0.000E+00	 1.698E+01	-1.777E+00	-2.080E+02	 5.288E+01	 5.286E+01	 6.776E+00	 3.826E+00	 4.257E+00	-3.761E+00	 1.713E+01	 4.181E+01	-6.462E+00	 1.638E+01	-2.832E+00	 1.006E+01	-1.309E+01	 1.444E+01	 1.077E+01	-1.259E-01	-1.568E+01	-8.673E-01	-1.167E+02
    7.5600	 1.200E+01	 0.000E+00	 0.000E+00	 1.660E+01	-4.757E-01	-2.103E+02	 5.305E+01	 5.304E+01	 6.572E+00	 3.097E+00	 3.519E+00	-3.337E+00	 1.511E+01	 3.686E+01	-5.274E+00	 1.519E+01	-1.768E-01	 1.332E+01	-1.385E+01	 1.868E+01	 9.456E+00	-7.856E-03	-9.817E-01	-5.404E-01	-7.487E+01
    7.6000	 1.200E+01	 0.000E+00	 0.000E+00	 1.626E+01	 5.099E-01	-2.121E+02	 5.318E+01	 5.317E+01	 6.214E+00	 2.323E+00	 2.689E+00	-2.819E+00	 1.261E+01	 3.146E+01	-3.981E+00	 1.347E+01	 2.148E+00	 1.659E+01	-1.301E+01	 2.188E+01	 7.831E+00	 9.546E-02	 1.196E+01	-3.006E-01	-4.443E+01
    7.6400	 1.200E+01	 0.000E+00	 0.000E+00	 1.679E+01	 1.130E+00	-2.133E+02	 5.329E+01	 5.327E+01	 5.666E+00	 1.557E+00	 1.879E+00	-2.380E+00	 1.096E+01	 2.612E+01	-2.796E+00	 1.182E+01	 5.134E+00	 1.938E+01	-1.059E+01	 2.402E+01	 6.245E+00	 2.282E-01	 2.864E+01	-1.103E-01	-2.039E+01
    7.6800	 1.200E+01	 0.000E+00	 0.000E+00	 1.797E+01	 1.585E+00	-2.141E+02	 5.339E+01	 5.337E+01	 5.137E+00	 7.052E-01	 1.144E+00	-1.988E+00	 9.648E+00	 2.191E+01	-1.523E+00	 1.047E+01	 9.023E+00	 2.107E+01	-7.235E+00	 2.520E+01	 4.461E+00	 4.010E-01	 5.043E+01	 6.662E-02	 1.855E+00
    7.7200	 1.200E+01	 0.000E+00	 0.000E+00	 1.831E+01	 1.885E+00	-2.143E+02	 5.349E+01	 5.347E+01	 4.959E+00	-2.695E-01	 1.008E+00	-1.569E+00	 8.304E+00	 2.088E+01	-1.897E-01	 9.744E+00	 1.350E+01	 2.118E+01	-3.615E+00	 2.523E+01	 2.317E+00	 6.001E-01	 7.560E+01	 2.481E-01	 2.458E+01
    7.7600	 1.200E+01	 0.000E+00	 0.000E+00	 1.936E+01	 2.263E+00	-2.141E+02	 5.360E+01	 5.357E+01	 4.890E+00	-1.387E+00	 1.219E+00	-1.086E+00	 6.699E+00	 2.193E+01	 1.344E+00	 9.910E+00	 1.865E+01	 1.992E+01	-5.988E-01	 2.426E+01	-2.965E-01	 8.290E-01	 1.046E+02	 4.454E-01	 4.916E+01
    7.8000	 1.200E+01	 0.000E+00	 0.000E+00	 2.123E+01	 2.767E+00	-2.136E+02	 5.371E+01	 5.368E+01	 4.846E+00	-2.591E+00	 1.620E+00	-4.979E-01	 4.459E+00	 2.441E+01	 2.910E+00	 1.079E+01	 2.352E+01	 1.792E+01	 1.292E+00	 2.244E+01	-3.354E+00	 1.045E+00	 1.322E+02	 6.556E-01	 7.523E+01
    7.8400	 1.200E+01	 0.000E+00	 0.000E+00	 2.266E+01	 3.184E+00	-2.129E+02	 5.381E+01	 5.379E+01	 4.978E+00	-3.783E+00	 2.247E+00	 1.422E-01	 1.873E+00	 2.846E+01	 4.365E+00	 1.194E+01	 2.771E+01	 1.575E+01	 2.049E+00	 1.986E+01	-6.578E+00	 1.232E+00	 1.561E+02	 8.626E-01	 1.008E+02
    7.8800	 1.200E+01	 0.000E+00	 0.000E+00	 2.420E+01	 3.432E+00	-2.123E+02	 5.391E+01	 5.389E+01	 5.135E+00	-4.861E+00	 2.937E+00	 7.444E-01	-5.118E-01	 3.293E+01	 5.587E+00	 1.310E+01	 3.123E+01	 1.382E+01	 1.920E+00	 1.660E+01	-9.621E+00	 1.388E+00	 1.763E+02	 1.056E+00	 1.245E+02
    7.9200	 1.200E+01	 0.000E+00	 0.000E+00	 2.618E+01	 3.562E+00	-2.119E+02	 5.399E+01	 5.398E+01	 5.167E+00	-5.758E+00	 3.577E+00	 1.299E+00	-2.835E+00	 3.682E+01	 6.511E+00	 1.413E+01	 3.359E+01	 1.242E+01	 1.226E+00	 1.282E+01	-1.225E+01	 1.493E+00	 1.899E+02	 1.223E+00	 1.449E+02
    7.9600	 1.200E+01	 0.000E+00	 0.000E+00	 2.814E+01	 3.549E+00	-2.116E+02	 5.405E+01	 5.404E+01	 5.091E+00	-6.423E+00	 4.141E+00	 1.759E+00	-4.927E+00	 3.981E+01	 7.141E+00	 1.483E+01	 3.483E+01	 1.164E+01	 3.922E-01	 8.778E+00	-1.424E+01	 1.548E+00	 1.971E+02	 1.352E+00	 1.607E+02
    8.0000	 1.200E+01	 0.000E+00	 0.000E+00	 2.985E+01	 3.294E+00	-2.116E+02	 5.409E+01	 5.409E+01	 4.907E+00	-6.776E+00	 4.543E+00	 2.016E+00	-6.069E+00	 4.161E+01	 7.373E+00	 1.503E+01	 3.525E+01	 1.126E+01	-2.498E-01	 4.687E+00	-1.531E+01	 1.567E+00	 1.997E+02	 1.441E+00	 1.715E+02
    8.0400	 1.200E+01	 0.000E+00	 0.000E+00	 3.142E+01	 2.792E+00	-2.119E+02	 5.412E+01	 5.412E+01	 4.636E+00	-6.812E+00	 4.759E+00	 2.047E+00	-6.109E+00	 4.230E+01	 7.212E+00	 1.474E+01	 3.506E+01	 1.106E+01	-6.551E-01	 6.954E-01	-1.542E+01	 1.558E+00	 1.987E+02	 1.494E+00	 1.779E+02
    8.0800	 1.200E+01	 0.000E+00	 0.000E+00	 3.251E+01	 2.202E+00	-2.123E+02	 5.413E+01	 5.413E+01	 4.317E+00	-6.582E+00	 4.865E+00	 1.868E+00	-5.227E+00	 4.231E+01	 6.849E+00	 1.420E+01	 3.459E+01	 1.099E+01	-8.990E-01	-3.094E+00	-1.469E+01	 1.537E+00	 1.961E+02	 1.516E+00	 1.806E+02
    8.1200	 1.200E+01	 0.000E+00	 0.000E+00	 3.338E+01	 1.663E+00	-2.129E+02	 5.413E+01	 5.413E+01	 4.009E+00	-6.129E+00	 4.948E+00	 1.477E+00	-3.373E+00	 4.208E+01	 6.348E+00	 1.368E+01	 3.421E+01	 1.099E+01	-9.749E-01	-6.516E+00	-1.324E+01	 1.521E+00	 1.939E+02	 1.521E+00	 1.812E+02
    8.1600	 1.200E+01	 0.000E+00	 0.000E+00	 3.409E+01	 1.223E+00	-2.135E+02	 5.413E+01	 5.413E+01	 3.734E+00	-5.474E+00	 5.021E+00	 8.686E-01	-4.402E-01	 4.178E+01	 5.635E+00	 1.332E+01	 3.402E+01	 1.094E+01	-8.973E-01	-9.391E+00	-1.111E+01	 1.512E+00	 1.928E+02	 1.519E+00	 1.809E+02
    8.2000	 1.200E+01	 0.000E+00	 0.000E+00	 3.442E+01	 8.922E-01	-2.141E+02	 5.413E+01	 5.413E+01	 3.554E+00	-4.655E+00	 5.096E+00	 7.633E-02	 3.436E+00	 4.166E+01	 4.751E+00	 1.311E+01	 3.402E+01	 1.077E+01	-7.527E-01	-1.162E+01	-8.440E+00	 1.512E+00	 1.928E+02	 1.516E+00	 1.806E+02
    8.2400	 1.200E+01	 0.000E+00	 0.000E+00	 3.435E+01	 6.849E-01	-2.147E+02	 5.413E+01	 5.413E+01	 3.495E+00	-3.734E+00	 5.170E+00	-8.631E-01	 8.075E+00	 4.178E+01	 3.772E+00	 1.299E+01	 3.434E+01	 1.054E+01	-6.391E-01	-1.317E+01	-5.368E+00	 1.526E+00	 1.946E+02	 1.517E+00	 1.808E+02
    8.2800	 1.200E+01	 0.000E+00	 0.000E+00	 3.402E+01	 6.041E-01	-2.153E+02	 5.414E+01	 5.413E+01	 3.494E+00	-2.738E+00	 5.205E+00	-1.909E+00	 1.329E+01	 4.189E+01	 2.734E+00	 1.291E+01	 3.491E+01	 1.032E+01	-6.384E-01	-1.405E+01	-2.020E+00	 1.552E+00	 1.979E+02	 1.527E+00	 1.820E+02
    8.3200	 1.200E+01	 0.000E+00	 0.000E+00	 3.346E+01	 6.186E-01	-2.158E+02	 5.415E+01	 5.414E+01	 3.502E+00	-1.720E+00	 5.201E+00	-2.997E+00	 1.871E+01	 4.183E+01	 1.664E+00	 1.292E+01	 3.558E+01	 1.024E+01	-7.253E-01	-1.429E+01	 1.433E+00	 1.581E+00	 2.017E+02	 1.545E+00	 1.841E+02
    8.3600	 1.200E+01	 0.000E+00	 0.000E+00	 3.293E+01	 7.731E-01	-2.162E+02	 5.416E+01	 5.415E+01	 3.528E+00	-7.557E-01	 5.171E+00	-4.049E+00	 2.389E+01	 4.158E+01	 6.743E-01	 1.297E+01	 3.629E+01	 1.030E+01	-7.693E-01	-1.389E+01	 4.765E+00	 1.613E+00	 2.058E+02	 1.569E+00	 1.870E+02
    8.4000	 1.200E+01	 0.000E+00	 0.000E+00	 3.259E+01	 1.047E+00	-2.165E+02	 5.417E+01	 5.417E+01	 3.565E+00	 1.057E-01	 5.109E+00	-5.005E+00	 2.856E+01	 4.116E+01	-2.089E-01	 1.301E+01	 3.700E+01	 1.045E+01	-6.983E-01	-1.286E+01	 7.807E+00	 1.644E+00	 2.099E+02	 1.596E+00	 1.903E+02
    8.4400	 1.200E+01	 0.000E+00	 0.000E+00	 3.190E+01	 1.387E+00	-2.168E+02	 5.419E+01	 5.418E+01	 3.712E+00	 8.244E-01	 5.053E+00	-5.822E+00	 3.252E+01	 4.101E+01	-9.355E-01	 1.298E+01	 3.767E+01	 1.062E+01	-4.711E-01	-1.126E+01	 1.041E+01	 1.674E+00	 2.137E+02	 1.624E+00	 1.937E+02
    8.4800	 1.200E+01	 0.000E+00	 0.000E+00	 3.108E+01	 1.753E+00	-2.169E+02	 5.420E+01	 5.420E+01	 3.926E+00	 1.381E+00	 4.999E+00	-6.473E+00	 3.571E+01	 4.111E+01	-1.521E+00	 1.298E+01	 3.828E+01	 1.078E+01	-6.026E-02	-9.244E+00	 1.248E+01	 1.701E+00	 2.173E+02	 1.653E+00	 1.972E+02
    8.5200	 1.200E+01	 0.000E+00	 0.000E+00	 3.031E+01	 2.149E+00	-2.171E+02	 5.421E+01	 5.421E+01	 4.168E+00	 1.747E+00	 4.957E+00	-6.912E+00	 3.783E+01	 4.142E+01	-1.931E+00	 1.311E+01	 3.869E+01	 1.081E+01	 5.536E-01	-6.955E+00	 1.389E+01	 1.719E+00	 2.196E+02	 1.679E+00	 2.004E+02
    8.5600	 1.200E+01	 0.000E+00	 0.000E+00	 2.958E+01	 2.569E+00	-2.173E+02	 5.422E+01	 5.422E+01	 4.427E+00	 1.898E+00	 4.949E+00	-7.106E+00	 3.867E+01	 4.190E+01	-2.104E+00	 1.339E+01	 3.887E+01	 1.057E+01	 1.277E+00	-4.487E+00	 1.457E+01	 1.728E+00	 2.207E+02	 1.699E+00	 2.028E+02
    8.6000	 1.200E+01	 0.000E+00	 0.000E+00	 2.892E+01	 2.949E+00	-2.175E+02	 5.423E+01	 5.423E+01	 4.670E+00	 1.847E+00	 4.932E+00	-7.067E+00	 3.834E+01	 4.232E+01	-2.048E+00	 1.370E+01	 3.886E+01	 1.005E+01	 1.947E+00	-1.940E+00	 1.453E+01	 1.727E+00	 2.207E+02	 1.712E+00	 2.043E+02
    8.6400	 1.200E+01	 0.000E+00	 0.000E+00	 2.830E+01	 3.187E+00	-2.177E+02	 5.423E+01	 5.423E+01	 4.879E+00	 1.639E+00	 4.878E+00	-6.845E+00	 3.715E+01	 4.251E+01	-1.844E+00	 1.395E+01	 3.868E+01	 9.368E+00	 2.469E+00	 5.642E-01	 1.390E+01	 1.719E+00	 2.197E+02	 1.717E+00	 2.050E+02
    8.6800	 1.200E+01	 0.000E+00	 0.000E+00	 2.779E+01	 3.267E+00	-2.179E+02	 5.423E+01	 5.423E+01	 5.030E+00	 1.286E+00	 4.771E+00	-6.454E+00	 3.516E+01	 4.237E+01	-1.485E+00	 1.405E+01	 3.835E+01	 8.565E+00	 2.810E+00	 2.901E+00	 1.273E+01	 1.705E+00	 2.178E+02	 1.715E+00	 2.047E+02
    8.7200	 1.200E+01	 0.000E+00	 0.000E+00	 2.743E+01	 3.239E+00	-2.180E+02	 5.422E+01	 5.422E+01	 5.112E+00	 7.841E-01	 4.627E+00	-5.898E+00	 3.238E+01	 4.188E+01	-9.281E-01	 1.403E+01	 3.798E+01	 7.688E+00	 2.913E+00	 4.979E+00	 1.104E+01	 1.688E+00	 2.156E+02	 1.706E+00	 2.036E+02
    8.7600	 1.200E+01	 0.000E+00	 0.000E+00	 2.728E+01	 3.129E+00	-2.180E+02	 5.422E+01	 5.422E+01	 5.133E+00	 1.499E-01	 4.471E+00	-5.208E+00	 2.895E+01	 4.116E+01	-2.230E-01	 1.392E+01	 3.760E+01	 6.835E+00	 2.750E+00	 6.737E+00	 8.920E+00	 1.671E+00	 2.135E+02	 1.694E+00	 2.022E+02
    8.8000	 1.200E+01	 0.000E+00	 0.000E+00	 2.729E+01	 2.978E+00	-2.179E+02	 5.421E+01	 5.421E+01	 5.106E+00	-5.993E-01	 4.324E+00	-4.406E+00	 2.501E+01	 4.033E+01	 6.062E-01	 1.379E+01	 3.726E+01	 6.118E+00	 2.311E+00	 8.131E+00	 6.427E+00	 1.656E+00	 2.115E+02	 1.680E+00	 2.005E+02
    8.8400	 1.200E+01	 0.000E+00	 0.000E+00	 2.738E+01	 2.873E+00	-2.177E+02	 5.420E+01	 5.420E+01	 5.061E+00	-1.462E+00	 4.209E+00	-3.504E+00	 2.060E+01	 3.959E+01	 1.567E+00	 1.368E+01	 3.702E+01	 5.641E+00	 1.615E+00	 9.110E+00	 3.605E+00	 1.645E+00	 2.101E+02	 1.666E+00	 1.988E+02
    8.8800	 1.200E+01	 0.000E+00	 0.000E+00	 2.752E+01	 2.847E+00	-2.174E+02	 5.420E+01	 5.420E+01	 5.005E+00	-2.409E+00	 4.128E+00	-2.533E+00	 1.589E+01	 3.904E+01	 2.637E+00	 1.363E+01	 3.692E+01	 5.518E+00	 7.545E-01	 9.641E+00	 5.497E-01	 1.641E+00	 2.095E+02	 1.655E+00	 1.975E+02
    8.9200	 1.200E+01	 0.000E+00	 0.000E+00	 2.773E+01	 2.918E+00	-2.170E+02	 5.419E+01	 5.419E+01	 4.943E+00	-3.398E+00	 4.081E+00	-1.535E+00	 1.108E+01	 3.868E+01	 3.755E+00	 1.365E+01	 3.693E+01	 5.819E+00	-1.078E-01	 9.702E+00	-2.609E+00	 1.641E+00	 2.096E+02	 1.648E+00	 1.966E+02
    8.9600	 1.200E+01	 0.000E+00	 0.000E+00	 2.798E+01	 3.087E+00	-2.166E+02	 5.419E+01	 5.419E+01	 4.871E+00	-4.381E+00	 4.058E+00	-5.589E-01	 6.372E+00	 3.846E+01	 4.868E+00	 1.373E+01	 3.703E+01	 6.536E+00	-7.738E-01	 9.293E+00	-5.719E+00	 1.646E+00	 2.102E+02	 1.645E+00	 1.963E+02