
Predictions were generated on 27-Apr-2015 at 13:26:57 using FAST (v8.11.01a-bjj, 21-Apr-2015), compiled as a 32-bit application using single precision
 linked with  NWTC Subroutine Library (v2.05.03a-bjj, 16-Apr-2015); ElastoDyn (v1.02.00a-bjj, 31-Mar-2015); InflowWind (v3.00.01a-adp, 27-Apr-2015); AeroDyn (v14.04.00a-bjj, 14-Apr-2015); ServoDyn (v1.02.00a-bjj, 31-Mar-2015)

Description from the FAST input file: FAST Certification Test #10: UAE Phase VI (upwind) with no DOFs in a ramped wind.

Time      	Wind1VelX 	Wind1VelY 	Wind1VelZ 	RootFxc1  	RootFyc1  	RootFzc1  	RootFxc2  	RootFyc2  	RootFzc2  	RootMOoP1 	RootMIP1  	RootMzc1  	RotTorq   	RotThrust 	RotPwr    	LSSGagMya 	LSSGagMza 	YawBrMxp  	YawBrMyp  	GenPwr    
(s)       	(m/s)     	(m/s)     	(m/s)     	(kN)      	(kN)      	(kN)      	(kN)      	(kN)      	(kN)      	(kN·m)    	(kN·m)    	(kN·m)    	(kN·m)    	(kN)      	(kW)      	(kN·m)    	(kN·m)    	(kN·m)    	(kN·m)    	(kW)      
    5.0000	 5.000E+00	 0.000E+00	 0.000E+00	 3.551E-01	-1.452E-02	 6.825E+00	 3.552E-01	-7.729E-02	 8.025E+00	 1.089E+00	 6.624E-02	-1.657E-02	 2.793E-01	 7.103E-01	 2.103E+00	-1.702E+00	-8.906E-02	 2.792E-01	-7.469E+00	 3.407E+00
    5.1000	 5.100E+00	 0.000E+00	 0.000E+00	 3.747E-01	-4.375E-01	 6.966E+00	 3.746E-01	 3.370E-01	 7.884E+00	 1.153E+00	 7.928E-01	-1.680E-02	 3.074E-01	 7.493E-01	 2.314E+00	-1.303E+00	 1.099E+00	 3.074E-01	-7.442E+00	 3.407E+00
    5.2000	 5.200E+00	 0.000E+00	 0.000E+00	 3.878E-01	-6.503E-01	 7.355E+00	 3.878E-01	 5.427E-01	 7.495E+00	 1.188E+00	 1.158E+00	-1.698E-02	 3.273E-01	 7.756E-01	 2.464E+00	-1.991E-01	 1.693E+00	 3.273E-01	-7.424E+00	 3.407E+00
    5.3000	 5.300E+00	 0.000E+00	 0.000E+00	 4.019E-01	-5.409E-01	 7.782E+00	 4.020E-01	 4.257E-01	 7.068E+00	 1.228E+00	 9.744E-01	-1.717E-02	 3.491E-01	 8.039E-01	 2.629E+00	 1.012E+00	 1.372E+00	 3.491E-01	-7.404E+00	 3.407E+00
    5.4000	 5.400E+00	 0.000E+00	 0.000E+00	 4.162E-01	-1.703E-01	 8.016E+00	 4.162E-01	 4.725E-02	 6.834E+00	 1.268E+00	 3.449E-01	-1.736E-02	 3.718E-01	 8.324E-01	 2.799E+00	 1.676E+00	 3.087E-01	 3.718E-01	-7.384E+00	 3.407E+00
    5.5000	 5.500E+00	 0.000E+00	 0.000E+00	 4.294E-01	 2.591E-01	 7.930E+00	 4.312E-01	-3.902E-01	 6.920E+00	 1.303E+00	-3.853E-01	-1.754E-02	 3.948E-01	 8.606E-01	 2.973E+00	 1.426E+00	-9.211E-01	 3.950E-01	-7.358E+00	 3.407E+00
    5.6000	 5.600E+00	 0.000E+00	 0.000E+00	 4.458E-01	 5.124E-01	 7.572E+00	 4.485E-01	-6.528E-01	 7.278E+00	 1.352E+00	-8.137E-01	-1.776E-02	 4.230E-01	 8.943E-01	 3.185E+00	 4.046E-01	-1.653E+00	 4.231E-01	-7.339E+00	 3.407E+00
    5.7000	 5.700E+00	 0.000E+00	 0.000E+00	 4.593E-01	 4.513E-01	 7.134E+00	 4.597E-01	-5.996E-01	 7.716E+00	 1.387E+00	-7.065E-01	-1.795E-02	 4.444E-01	 9.190E-01	 3.346E+00	-8.283E-01	-1.491E+00	 4.444E-01	-7.326E+00	 3.407E+00
    5.8000	 5.800E+00	 0.000E+00	 0.000E+00	 4.750E-01	 1.056E-01	 6.853E+00	 4.715E-01	-2.624E-01	 7.997E+00	 1.433E+00	-1.129E-01	-1.815E-02	 4.683E-01	 9.466E-01	 3.526E+00	-1.606E+00	-5.230E-01	 4.687E-01	-7.290E+00	 3.407E+00
    5.9000	 5.900E+00	 0.000E+00	 0.000E+00	 4.886E-01	-3.395E-01	 6.882E+00	 4.896E-01	 1.730E-01	 7.968E+00	 1.469E+00	 6.494E-01	-1.835E-02	 4.966E-01	 9.782E-01	 3.739E+00	-1.546E+00	 7.275E-01	 4.965E-01	-7.288E+00	 3.407E+00
    6.0000	 6.000E+00	 0.000E+00	 0.000E+00	 5.058E-01	-6.468E-01	 7.204E+00	 5.059E-01	 4.701E-01	 7.646E+00	 1.521E+00	 1.179E+00	-1.848E-02	 5.279E-01	 1.012E+00	 3.975E+00	-6.277E-01	 1.585E+00	 5.279E-01	-7.260E+00	 3.407E+00
    6.1000	 6.100E+00	 0.000E+00	 0.000E+00	 5.175E-01	-6.512E-01	 7.646E+00	 5.197E-01	 4.657E-01	 7.204E+00	 1.549E+00	 1.188E+00	-1.847E-02	 5.517E-01	 1.037E+00	 4.154E+00	 6.157E-01	 1.585E+00	 5.518E-01	-7.238E+00	 3.407E+00
    6.2000	 6.200E+00	 0.000E+00	 0.000E+00	 5.380E-01	-3.554E-01	 7.968E+00	 5.384E-01	 1.581E-01	 6.882E+00	 1.615E+00	 6.901E-01	-1.847E-02	 5.894E-01	 1.076E+00	 4.437E+00	 1.539E+00	 7.288E-01	 5.894E-01	-7.214E+00	 3.407E+00
    6.3000	 6.300E+00	 0.000E+00	 0.000E+00	 5.485E-01	 8.116E-02	 7.997E+00	 5.478E-01	-2.865E-01	 6.853E+00	 1.639E+00	-5.332E-02	-1.833E-02	 6.090E-01	 1.096E+00	 4.585E+00	 1.626E+00	-5.218E-01	 6.089E-01	-7.205E+00	 3.407E+00
    6.4000	 6.400E+00	 0.000E+00	 0.000E+00	 5.681E-01	 4.164E-01	 7.717E+00	 5.674E-01	-6.338E-01	 7.134E+00	 1.701E+00	-6.191E-01	-1.823E-02	 6.473E-01	 1.135E+00	 4.873E+00	 8.302E-01	-1.490E+00	 6.472E-01	-7.176E+00	 3.407E+00
    6.5000	 6.500E+00	 0.000E+00	 0.000E+00	 5.787E-01	 4.693E-01	 7.279E+00	 5.791E-01	-6.958E-01	 7.571E+00	 1.725E+00	-7.076E-01	-1.802E-02	 6.712E-01	 1.158E+00	 5.054E+00	-4.173E-01	-1.653E+00	 6.712E-01	-7.160E+00	 3.407E+00
    6.6000	 6.600E+00	 0.000E+00	 0.000E+00	 5.944E-01	 2.062E-01	 6.920E+00	 5.943E-01	-4.437E-01	 7.930E+00	 1.770E+00	-2.539E-01	-1.784E-02	 7.038E-01	 1.189E+00	 5.299E+00	-1.433E+00	-9.222E-01	 7.038E-01	-7.137E+00	 3.407E+00
    6.7000	 6.700E+00	 0.000E+00	 0.000E+00	 6.088E-01	-2.325E-01	 6.834E+00	 6.089E-01	-1.591E-02	 8.016E+00	 1.810E+00	 4.986E-01	-1.763E-02	 7.349E-01	 1.218E+00	 5.533E+00	-1.677E+00	 3.073E-01	 7.349E-01	-7.118E+00	 3.407E+00
    6.8000	 6.800E+00	 0.000E+00	 0.000E+00	 6.231E-01	-6.125E-01	 7.068E+00	 6.231E-01	 3.534E-01	 7.782E+00	 1.852E+00	 1.152E+00	-1.739E-02	 7.668E-01	 1.246E+00	 5.774E+00	-1.013E+00	 1.371E+00	 7.668E-01	-7.098E+00	 3.407E+00
    6.9000	 6.900E+00	 0.000E+00	 0.000E+00	 6.405E-01	-7.321E-01	 7.495E+00	 6.405E-01	 4.610E-01	 7.355E+00	 1.910E+00	 1.362E+00	-1.719E-02	 8.055E-01	 1.281E+00	 6.065E+00	 1.981E-01	 1.693E+00	 8.055E-01	-7.074E+00	 3.407E+00
    7.0000	 7.000E+00	 0.000E+00	 0.000E+00	 6.482E-01	-5.273E-01	 7.884E+00	 6.482E-01	 2.479E-01	 6.966E+00	 1.925E+00	 1.015E+00	-1.689E-02	 8.270E-01	 1.296E+00	 6.226E+00	 1.302E+00	 1.100E+00	 8.270E-01	-7.063E+00	 3.407E+00
    7.1000	 7.100E+00	 0.000E+00	 0.000E+00	 6.589E-01	-1.136E-01	 8.025E+00	 6.590E-01	-1.754E-01	 6.825E+00	 1.955E+00	 3.120E-01	-1.661E-02	 8.544E-01	 1.318E+00	 6.433E+00	 1.702E+00	-8.765E-02	 8.544E-01	-7.048E+00	 3.407E+00
    7.2000	 7.200E+00	 0.000E+00	 0.000E+00	 6.688E-01	 2.835E-01	 7.842E+00	 6.688E-01	-5.819E-01	 7.008E+00	 1.983E+00	-3.622E-01	-1.632E-02	 8.812E-01	 1.338E+00	 6.635E+00	 1.182E+00	-1.228E+00	 8.812E-01	-7.035E+00	 3.407E+00
    7.3000	 7.300E+00	 0.000E+00	 0.000E+00	 6.839E-01	 4.457E-01	 7.433E+00	 6.838E-01	-7.555E-01	 7.417E+00	 2.033E+00	-6.328E-01	-1.607E-02	 9.179E-01	 1.368E+00	 6.912E+00	 2.321E-02	-1.704E+00	 9.179E-01	-7.014E+00	 3.407E+00
    7.4000	 7.400E+00	 0.000E+00	 0.000E+00	 6.926E-01	 2.841E-01	 7.020E+00	 6.921E-01	-6.033E-01	 7.830E+00	 2.056E+00	-3.537E-01	-1.575E-02	 9.444E-01	 1.385E+00	 7.111E+00	-1.146E+00	-1.259E+00	 9.445E-01	-7.000E+00	 3.407E+00
    7.5000	 7.500E+00	 0.000E+00	 0.000E+00	 7.071E-01	-1.186E-01	 6.826E+00	 7.069E-01	-2.126E-01	 8.024E+00	 2.105E+00	 3.402E-01	-1.549E-02	 9.838E-01	 1.414E+00	 7.407E+00	-1.698E+00	-1.335E-01	 9.838E-01	-6.981E+00	 3.407E+00
    7.6000	 7.600E+00	 0.000E+00	 0.000E+00	 7.112E-01	-5.444E-01	 6.956E+00	 7.113E-01	 2.058E-01	 7.894E+00	 2.110E+00	 1.067E+00	-1.514E-02	 1.001E+00	 1.422E+00	 7.536E+00	-1.332E+00	 1.065E+00	 1.001E+00	-6.976E+00	 3.407E+00
    7.7000	 7.700E+00	 0.000E+00	 0.000E+00	 7.248E-01	-7.698E-01	 7.339E+00	 7.248E-01	 4.192E-01	 7.511E+00	 2.158E+00	 1.459E+00	-1.488E-02	 1.041E+00	 1.450E+00	 7.834E+00	-2.435E-01	 1.687E+00	 1.041E+00	-6.957E+00	 3.407E+00
    7.8000	 7.800E+00	 0.000E+00	 0.000E+00	 7.359E-01	-6.731E-01	 7.769E+00	 7.359E-01	 3.117E-01	 7.081E+00	 2.195E+00	 1.300E+00	-1.462E-02	 1.075E+00	 1.472E+00	 8.095E+00	 9.759E-01	 1.398E+00	 1.075E+00	-6.942E+00	 3.407E+00
    7.9000	 7.900E+00	 0.000E+00	 0.000E+00	 7.392E-01	-3.084E-01	 8.013E+00	 7.392E-01	-6.000E-02	 6.837E+00	 2.198E+00	 6.781E-01	-1.437E-02	 1.091E+00	 1.478E+00	 8.218E+00	 1.668E+00	 3.524E-01	 1.091E+00	-6.937E+00	 3.407E+00
    8.0000	 8.000E+00	 0.000E+00	 0.000E+00	 7.478E-01	 1.224E-01	 7.939E+00	 7.478E-01	-5.000E-01	 6.911E+00	 2.225E+00	-5.300E-02	-1.423E-02	 1.119E+00	 1.496E+00	 8.427E+00	 1.458E+00	-8.832E-01	 1.119E+00	-6.925E+00	 3.407E+00
    8.1000	 8.100E+00	 0.000E+00	 0.000E+00	 7.574E-01	 3.846E-01	 7.587E+00	 7.574E-01	-7.722E-01	 7.263E+00	 2.254E+00	-4.956E-01	-1.411E-02	 1.150E+00	 1.515E+00	 8.660E+00	 4.599E-01	-1.641E+00	 1.150E+00	-6.912E+00	 3.407E+00
    8.2000	 8.200E+00	 0.000E+00	 0.000E+00	 7.626E-01	 3.351E-01	 7.148E+00	 7.625E-01	-7.305E-01	 7.702E+00	 2.264E+00	-4.095E-01	-1.402E-02	 1.170E+00	 1.525E+00	 8.812E+00	-7.868E-01	-1.512E+00	 1.170E+00	-6.905E+00	 3.407E+00
    8.3000	 8.300E+00	 0.000E+00	 0.000E+00	 7.708E-01	-3.057E-03	 6.858E+00	 7.708E-01	-4.015E-01	 7.992E+00	 2.287E+00	 1.715E-01	-1.400E-02	 1.198E+00	 1.542E+00	 9.018E+00	-1.608E+00	-5.654E-01	 1.198E+00	-6.894E+00	 3.407E+00
    8.4000	 8.400E+00	 0.000E+00	 0.000E+00	 7.804E-01	-4.491E-01	 6.875E+00	 7.804E-01	 3.507E-02	 7.975E+00	 2.318E+00	 9.377E-01	-1.403E-02	 1.228E+00	 1.561E+00	 9.247E+00	-1.560E+00	 6.870E-01	 1.228E+00	-6.880E+00	 3.407E+00
    8.5000	 8.500E+00	 0.000E+00	 0.000E+00	 7.861E-01	-7.634E-01	 7.189E+00	 7.862E-01	 3.416E-01	 7.661E+00	 2.332E+00	 1.477E+00	-1.407E-02	 1.250E+00	 1.572E+00	 9.414E+00	-6.685E-01	 1.568E+00	 1.250E+00	-6.872E+00	 3.407E+00
    8.6000	 8.600E+00	 0.000E+00	 0.000E+00	 7.912E-01	-7.787E-01	 7.631E+00	 7.912E-01	 3.498E-01	 7.219E+00	 2.344E+00	 1.506E+00	-1.413E-02	 1.271E+00	 1.582E+00	 9.570E+00	 5.844E-01	 1.601E+00	 1.271E+00	-6.865E+00	 3.407E+00
    8.7000	 8.700E+00	 0.000E+00	 0.000E+00	 7.974E-01	-4.892E-01	 7.961E+00	 7.974E-01	 5.260E-02	 6.889E+00	 2.362E+00	 1.015E+00	-1.419E-02	 1.295E+00	 1.595E+00	 9.747E+00	 1.521E+00	 7.688E-01	 1.295E+00	-6.857E+00	 3.407E+00
    8.8000	 8.800E+00	 0.000E+00	 0.000E+00	 8.026E-01	-5.307E-02	 8.001E+00	 8.026E-01	-3.908E-01	 6.849E+00	 2.377E+00	 2.741E-01	-1.423E-02	 1.316E+00	 1.605E+00	 9.911E+00	 1.636E+00	-4.792E-01	 1.316E+00	-6.850E+00	 3.407E+00
    8.9000	 8.900E+00	 0.000E+00	 0.000E+00	 8.076E-01	 2.919E-01	 7.730E+00	 8.076E-01	-7.428E-01	 7.120E+00	 2.390E+00	-3.114E-01	-1.426E-02	 1.338E+00	 1.615E+00	 1.007E+01	 8.659E-01	-1.468E+00	 1.338E+00	-6.843E+00	 3.407E+00
    9.0000	 9.000E+00	 0.000E+00	 0.000E+00	 8.122E-01	 3.572E-01	 7.294E+00	 8.122E-01	-8.151E-01	 7.556E+00	 2.403E+00	-4.199E-01	-1.429E-02	 1.358E+00	 1.624E+00	 1.023E+01	-3.721E-01	-1.663E+00	 1.358E+00	-6.836E+00	 3.407E+00
    9.1000	 9.100E+00	 0.000E+00	 0.000E+00	 8.166E-01	 1.058E-01	 6.929E+00	 8.166E-01	-5.703E-01	 7.921E+00	 2.416E+00	 1.203E-02	-1.436E-02	 1.378E+00	 1.633E+00	 1.038E+01	-1.409E+00	-9.594E-01	 1.378E+00	-6.830E+00	 3.407E+00
    9.2000	 9.200E+00	 0.000E+00	 0.000E+00	 8.211E-01	-3.282E-01	 6.832E+00	 8.211E-01	-1.426E-01	 8.018E+00	 2.428E+00	 7.555E-01	-1.445E-02	 1.398E+00	 1.642E+00	 1.052E+01	-1.684E+00	 2.634E-01	 1.398E+00	-6.824E+00	 3.407E+00
    9.3000	 9.300E+00	 0.000E+00	 0.000E+00	 8.243E-01	-7.116E-01	 7.055E+00	 8.243E-01	 2.354E-01	 7.795E+00	 2.438E+00	 1.412E+00	-1.456E-02	 1.414E+00	 1.649E+00	 1.065E+01	-1.049E+00	 1.344E+00	 1.414E+00	-6.819E+00	 3.407E+00
    9.4000	 9.400E+00	 0.000E+00	 0.000E+00	 8.266E-01	-8.383E-01	 7.479E+00	 8.266E-01	 3.580E-01	 7.371E+00	 2.444E+00	 1.631E+00	-1.468E-02	 1.427E+00	 1.653E+00	 1.075E+01	 1.536E-01	 1.698E+00	 1.427E+00	-6.816E+00	 3.407E+00
    9.5000	 9.500E+00	 0.000E+00	 0.000E+00	 8.309E-01	-6.415E-01	 7.874E+00	 8.317E-01	 1.572E-01	 6.976E+00	 2.459E+00	 1.298E+00	-1.496E-02	 1.444E+00	 1.663E+00	 1.087E+01	 1.269E+00	 1.134E+00	 1.444E+00	-6.806E+00	 3.407E+00
    9.6000	 9.600E+00	 0.000E+00	 0.000E+00	 8.341E-01	-2.260E-01	 8.025E+00	 8.348E-01	-2.566E-01	 6.825E+00	 2.467E+00	 5.922E-01	-1.593E-02	 1.446E+00	 1.669E+00	 1.089E+01	 1.700E+00	-4.322E-02	 1.446E+00	-6.802E+00	 3.407E+00
    9.7000	 9.700E+00	 0.000E+00	 0.000E+00	 8.352E-01	 1.829E-01	 7.853E+00	 8.344E-01	-6.601E-01	 6.997E+00	 2.467E+00	-1.042E-01	-1.732E-02	 1.436E+00	 1.670E+00	 1.081E+01	 1.218E+00	-1.197E+00	 1.436E+00	-6.808E+00	 3.407E+00
    9.8000	 9.800E+00	 0.000E+00	 0.000E+00	 8.401E-01	 3.641E-01	 7.449E+00	 8.405E-01	-8.363E-01	 7.401E+00	 2.483E+00	-4.086E-01	-1.882E-02	 1.436E+00	 1.681E+00	 1.081E+01	 6.550E-02	-1.703E+00	 1.436E+00	-6.797E+00	 3.407E+00
    9.9000	 9.900E+00	 0.000E+00	 0.000E+00	 8.445E-01	 2.248E-01	 7.032E+00	 8.421E-01	-6.828E-01	 7.818E+00	 2.495E+00	-1.668E-01	-2.101E-02	 1.411E+00	 1.687E+00	 1.062E+01	-1.104E+00	-1.289E+00	 1.411E+00	-6.785E+00	 3.407E+00
   10.0000	 1.000E+01	 0.000E+00	 0.000E+00	 8.447E-01	-1.582E-01	 6.828E+00	 8.477E-01	-2.845E-01	 8.022E+00	 2.489E+00	 4.876E-01	-2.317E-02	 1.385E+00	 1.692E+00	 1.043E+01	-1.710E+00	-1.782E-01	 1.384E+00	-6.804E+00	 3.407E+00
   10.1000	 1.010E+01	 0.000E+00	 0.000E+00	 8.503E-01	-5.806E-01	 6.946E+00	 8.479E-01	 1.457E-01	 7.904E+00	 2.509E+00	 1.213E+00	-2.461E-02	 1.373E+00	 1.698E+00	 1.034E+01	-1.347E+00	 1.030E+00	 1.373E+00	-6.776E+00	 3.407E+00
   10.2000	 1.020E+01	 0.000E+00	 0.000E+00	 8.527E-01	-8.052E-01	 7.324E+00	 8.531E-01	 3.787E-01	 7.526E+00	 2.513E+00	 1.598E+00	-2.580E-02	 1.361E+00	 1.706E+00	 1.025E+01	-2.895E-01	 1.680E+00	 1.361E+00	-6.780E+00	 3.407E+00
   10.3000	 1.030E+01	 0.000E+00	 0.000E+00	 8.532E-01	-7.102E-01	 7.756E+00	 8.526E-01	 2.925E-01	 7.094E+00	 2.511E+00	 1.435E+00	-2.688E-02	 1.339E+00	 1.706E+00	 1.008E+01	 9.424E-01	 1.423E+00	 1.339E+00	-6.782E+00	 3.407E+00
   10.4000	 1.040E+01	 0.000E+00	 0.000E+00	 8.580E-01	-3.470E-01	 8.009E+00	 8.580E-01	-6.800E-02	 6.841E+00	 2.525E+00	 8.184E-01	-2.793E-02	 1.340E+00	 1.716E+00	 1.009E+01	 1.658E+00	 3.959E-01	 1.340E+00	-6.773E+00	 3.407E+00
   10.5000	 1.050E+01	 0.000E+00	 0.000E+00	 8.600E-01	 9.036E-02	 7.947E+00	 8.606E-01	-5.053E-01	 6.903E+00	 2.527E+00	 7.055E-02	-2.886E-02	 1.338E+00	 1.721E+00	 1.007E+01	 1.477E+00	-8.449E-01	 1.338E+00	-6.767E+00	 3.407E+00
   10.6000	 1.060E+01	 0.000E+00	 0.000E+00	 8.625E-01	 3.670E-01	 7.602E+00	 8.625E-01	-7.808E-01	 7.248E+00	 2.531E+00	-4.036E-01	-2.991E-02	 1.330E+00	 1.725E+00	 1.002E+01	 5.029E-01	-1.629E+00	 1.330E+00	-6.767E+00	 3.407E+00
   10.7000	 1.070E+01	 0.000E+00	 0.000E+00	 8.674E-01	 3.323E-01	 7.162E+00	 8.674E-01	-7.474E-01	 7.688E+00	 2.544E+00	-3.438E-01	-3.094E-02	 1.334E+00	 1.735E+00	 1.005E+01	-7.470E-01	-1.532E+00	 1.334E+00	-6.760E+00	 3.407E+00
   10.8000	 1.080E+01	 0.000E+00	 0.000E+00	 8.699E-01	 6.914E-03	 6.864E+00	 8.699E-01	-4.210E-01	 7.986E+00	 2.545E+00	 2.084E-01	-3.225E-02	 1.326E+00	 1.740E+00	 9.984E+00	-1.593E+00	-6.072E-01	 1.326E+00	-6.756E+00	 3.407E+00
   10.9000	 1.090E+01	 0.000E+00	 0.000E+00	 8.758E-01	-4.357E-01	 6.869E+00	 8.758E-01	 1.960E-02	 7.981E+00	 2.559E+00	 9.632E-01	-3.357E-02	 1.329E+00	 1.752E+00	 1.001E+01	-1.577E+00	 6.460E-01	 1.329E+00	-6.748E+00	 3.407E+00
   11.0000	 1.100E+01	 0.000E+00	 0.000E+00	 8.810E-01	-7.549E-01	 7.175E+00	 8.810E-01	 3.374E-01	 7.675E+00	 2.569E+00	 1.506E+00	-3.498E-02	 1.329E+00	 1.762E+00	 1.001E+01	-7.093E-01	 1.550E+00	 1.329E+00	-6.741E+00	 3.407E+00
   11.1000	 1.110E+01	 0.000E+00	 0.000E+00	 8.853E-01	-7.786E-01	 7.616E+00	 8.853E-01	 3.602E-01	 7.234E+00	 2.576E+00	 1.544E+00	-3.641E-02	 1.325E+00	 1.771E+00	 9.979E+00	 5.423E-01	 1.616E+00	 1.325E+00	-6.735E+00	 3.407E+00
   11.2000	 1.120E+01	 0.000E+00	 0.000E+00	 8.896E-01	-4.945E-01	 7.954E+00	 8.896E-01	 7.518E-02	 6.896E+00	 2.582E+00	 1.057E+00	-3.784E-02	 1.322E+00	 1.779E+00	 9.956E+00	 1.501E+00	 8.083E-01	 1.322E+00	-6.729E+00	 3.407E+00
   11.3000	 1.130E+01	 0.000E+00	 0.000E+00	 8.949E-01	-5.664E-02	 8.006E+00	 8.949E-01	-3.641E-01	 6.844E+00	 2.591E+00	 3.067E-01	-3.926E-02	 1.320E+00	 1.790E+00	 9.938E+00	 1.648E+00	-4.363E-01	 1.320E+00	-6.722E+00	 3.407E+00
   11.4000	 1.140E+01	 0.000E+00	 0.000E+00	 9.004E-01	 2.978E-01	 7.744E+00	 9.004E-01	-7.206E-01	 7.106E+00	 2.600E+00	-3.010E-01	-4.076E-02	 1.318E+00	 1.801E+00	 9.927E+00	 9.040E-01	-1.445E+00	 1.318E+00	-6.714E+00	 3.407E+00
   11.5000	 1.150E+01	 0.000E+00	 0.000E+00	 9.058E-01	 3.770E-01	 7.309E+00	 9.058E-01	-8.017E-01	 7.541E+00	 2.609E+00	-4.390E-01	-4.225E-02	 1.317E+00	 1.812E+00	 9.915E+00	-3.285E-01	-1.673E+00	 1.317E+00	-6.707E+00	 3.407E+00
   11.6000	 1.160E+01	 0.000E+00	 0.000E+00	 9.116E-01	 1.374E-01	 6.938E+00	 9.116E-01	-5.644E-01	 7.912E+00	 2.620E+00	-3.279E-02	-4.376E-02	 1.316E+00	 1.823E+00	 9.912E+00	-1.383E+00	-9.959E-01	 1.316E+00	-6.699E+00	 3.407E+00
   11.7000	 1.170E+01	 0.000E+00	 0.000E+00	 9.175E-01	-2.921E-01	 6.829E+00	 9.175E-01	-1.375E-01	 8.021E+00	 2.631E+00	 6.973E-01	-4.514E-02	 1.316E+00	 1.835E+00	 9.911E+00	-1.690E+00	 2.193E-01	 1.316E+00	-6.691E+00	 3.407E+00
   11.8000	 1.180E+01	 0.000E+00	 0.000E+00	 9.237E-01	-6.795E-01	 7.043E+00	 9.237E-01	 2.478E-01	 7.807E+00	 2.642E+00	 1.355E+00	-4.677E-02	 1.313E+00	 1.847E+00	 9.889E+00	-1.084E+00	 1.316E+00	 1.313E+00	-6.682E+00	 3.407E+00
   11.9000	 1.190E+01	 0.000E+00	 0.000E+00	 9.294E-01	-8.162E-01	 7.463E+00	 9.294E-01	 3.825E-01	 7.387E+00	 2.651E+00	 1.584E+00	-4.840E-02	 1.310E+00	 1.859E+00	 9.861E+00	 1.092E-01	 1.701E+00	 1.310E+00	-6.674E+00	 3.407E+00
   12.0000	 1.200E+01	 0.000E+00	 0.000E+00	 9.352E-01	-6.289E-01	 7.863E+00	 9.352E-01	 1.932E-01	 6.987E+00	 2.661E+00	 1.260E+00	-5.002E-02	 1.306E+00	 1.870E+00	 9.834E+00	 1.243E+00	 1.167E+00	 1.306E+00	-6.666E+00	 3.407E+00
   12.1000	 1.210E+01	 0.000E+00	 0.000E+00	 9.408E-01	-2.195E-01	 8.026E+00	 9.408E-01	-2.185E-01	 6.824E+00	 2.669E+00	 5.575E-01	-5.164E-02	 1.302E+00	 1.882E+00	 9.807E+00	 1.705E+00	 1.417E-03	 1.302E+00	-6.658E+00	 3.407E+00
   12.2000	 1.220E+01	 0.000E+00	 0.000E+00	 9.470E-01	 1.897E-01	 7.864E+00	 9.470E-01	-6.310E-01	 6.986E+00	 2.679E+00	-1.446E-01	-5.313E-02	 1.302E+00	 1.894E+00	 9.802E+00	 1.245E+00	-1.165E+00	 1.302E+00	-6.650E+00	 3.407E+00
   12.3000	 1.230E+01	 0.000E+00	 0.000E+00	 9.539E-01	 3.772E-01	 7.464E+00	 9.539E-01	-8.214E-01	 7.386E+00	 2.692E+00	-4.689E-01	-5.476E-02	 1.299E+00	 1.908E+00	 9.784E+00	 1.120E-01	-1.701E+00	 1.299E+00	-6.640E+00	 3.407E+00
   12.4000	 1.240E+01	 0.000E+00	 0.000E+00	 9.607E-01	 2.407E-01	 7.044E+00	 9.607E-01	-6.879E-01	 7.806E+00	 2.704E+00	-2.403E-01	-5.641E-02	 1.297E+00	 1.921E+00	 9.767E+00	-1.081E+00	-1.318E+00	 1.297E+00	-6.631E+00	 3.407E+00
   12.5000	 1.250E+01	 0.000E+00	 0.000E+00	 9.674E-01	-1.468E-01	 6.830E+00	 9.674E-01	-3.034E-01	 8.021E+00	 2.716E+00	 4.164E-01	-5.807E-02	 1.294E+00	 1.935E+00	 9.746E+00	-1.690E+00	-2.221E-01	 1.294E+00	-6.621E+00	 3.407E+00
   12.6000	 1.260E+01	 0.000E+00	 0.000E+00	 9.739E-01	-5.759E-01	 6.937E+00	 9.739E-01	 1.243E-01	 7.913E+00	 2.726E+00	 1.142E+00	-5.992E-02	 1.285E+00	 1.948E+00	 9.677E+00	-1.385E+00	 9.936E-01	 1.285E+00	-6.612E+00	 3.407E+00
   12.7000	 1.270E+01	 0.000E+00	 0.000E+00	 9.814E-01	-8.167E-01	 7.308E+00	 9.814E-01	 3.616E-01	 7.542E+00	 2.740E+00	 1.549E+00	-6.153E-02	 1.284E+00	 1.963E+00	 9.665E+00	-3.313E-01	 1.672E+00	 1.284E+00	-6.602E+00	 3.407E+00
   12.8000	 1.280E+01	 0.000E+00	 0.000E+00	 9.890E-01	-7.389E-01	 7.743E+00	 9.890E-01	 2.805E-01	 7.107E+00	 2.754E+00	 1.411E+00	-6.308E-02	 1.281E+00	 1.978E+00	 9.647E+00	 9.016E-01	 1.447E+00	 1.281E+00	-6.592E+00	 3.407E+00
   12.9000	 1.290E+01	 0.000E+00	 0.000E+00	 9.964E-01	-3.852E-01	 8.005E+00	 9.964E-01	-7.573E-02	 6.845E+00	 2.768E+00	 8.029E-01	-6.451E-02	 1.277E+00	 1.993E+00	 9.615E+00	 1.647E+00	 4.391E-01	 1.277E+00	-6.581E+00	 3.407E+00
   13.0000	 1.300E+01	 0.000E+00	 0.000E+00	 1.003E+00	 5.281E-02	 7.954E+00	 1.003E+00	-5.151E-01	 6.896E+00	 2.779E+00	 4.968E-02	-6.593E-02	 1.268E+00	 2.007E+00	 9.548E+00	 1.502E+00	-8.058E-01	 1.268E+00	-6.572E+00	 3.407E+00
   13.1000	 1.310E+01	 0.000E+00	 0.000E+00	 1.010E+00	 3.381E-01	 7.617E+00	 1.010E+00	-8.001E-01	 7.233E+00	 2.791E+00	-4.451E-01	-6.748E-02	 1.252E+00	 2.021E+00	 9.424E+00	 5.450E-01	-1.615E+00	 1.252E+00	-6.562E+00	 3.407E+00
   13.2000	 1.320E+01	 0.000E+00	 0.000E+00	 1.018E+00	 3.147E-01	 7.176E+00	 1.018E+00	-7.784E-01	 7.674E+00	 2.805E+00	-4.113E-01	-6.893E-02	 1.243E+00	 2.036E+00	 9.360E+00	-7.067E-01	-1.551E+00	 1.243E+00	-6.552E+00	 3.407E+00
   13.3000	 1.330E+01	 0.000E+00	 0.000E+00	 1.026E+00	-4.596E-03	 6.870E+00	 1.026E+00	-4.617E-01	 7.980E+00	 2.819E+00	 1.281E-01	-7.031E-02	 1.238E+00	 2.051E+00	 9.318E+00	-1.576E+00	-6.486E-01	 1.238E+00	-6.541E+00	 3.407E+00
   13.4000	 1.340E+01	 0.000E+00	 0.000E+00	 1.034E+00	-4.474E-01	 6.863E+00	 1.034E+00	-2.135E-02	 7.987E+00	 2.834E+00	 8.781E-01	-7.168E-02	 1.232E+00	 2.067E+00	 9.273E+00	-1.594E+00	 6.046E-01	 1.232E+00	-6.530E+00	 3.407E+00
   13.5000	 1.350E+01	 0.000E+00	 0.000E+00	 1.042E+00	-7.745E-01	 7.161E+00	 1.042E+00	 3.044E-01	 7.689E+00	 2.849E+00	 1.429E+00	-7.326E-02	 1.220E+00	 2.083E+00	 9.188E+00	-7.495E-01	 1.531E+00	 1.220E+00	-6.519E+00	 3.407E+00
   13.6000	 1.360E+01	 0.000E+00	 0.000E+00	 1.050E+00	-8.101E-01	 7.601E+00	 1.050E+00	 3.383E-01	 7.249E+00	 2.866E+00	 1.483E+00	-7.457E-02	 1.210E+00	 2.100E+00	 9.112E+00	 4.999E-01	 1.630E+00	 1.210E+00	-6.507E+00	 3.407E+00
   13.7000	 1.370E+01	 0.000E+00	 0.000E+00	 1.058E+00	-5.352E-01	 7.946E+00	 1.058E+00	 6.194E-02	 6.904E+00	 2.880E+00	 1.006E+00	-7.583E-02	 1.198E+00	 2.116E+00	 9.023E+00	 1.479E+00	 8.473E-01	 1.198E+00	-6.496E+00	 3.407E+00
   13.8000	 1.380E+01	 0.000E+00	 0.000E+00	 1.066E+00	-9.930E-02	 8.009E+00	 1.066E+00	-3.763E-01	 6.841E+00	 2.894E+00	 2.558E-01	-7.718E-02	 1.190E+00	 2.132E+00	 8.959E+00	 1.659E+00	-3.931E-01	 1.190E+00	-6.485E+00	 3.407E+00
   13.9000	 1.390E+01	 0.000E+00	 0.000E+00	 1.074E+00	 2.622E-01	 7.757E+00	 1.074E+00	-7.392E-01	 7.093E+00	 2.907E+00	-3.687E-01	-7.868E-02	 1.178E+00	 2.148E+00	 8.867E+00	 9.415E-01	-1.421E+00	 1.178E+00	-6.474E+00	 3.407E+00
   14.0000	 1.400E+01	 0.000E+00	 0.000E+00	 1.081E+00	 3.535E-01	 7.325E+00	 1.081E+00	-8.309E-01	 7.525E+00	 2.919E+00	-5.334E-01	-8.030E-02	 1.160E+00	 2.162E+00	 8.738E+00	-2.847E-01	-1.681E+00	 1.160E+00	-6.464E+00	 3.407E+00
   14.1000	 1.410E+01	 0.000E+00	 0.000E+00	 1.089E+00	 1.243E-01	 6.947E+00	 1.089E+00	-6.028E-01	 7.903E+00	 2.931E+00	-1.507E-01	-8.175E-02	 1.146E+00	 2.177E+00	 8.628E+00	-1.357E+00	-1.032E+00	 1.146E+00	-6.454E+00	 3.407E+00
   14.2000	 1.420E+01	 0.000E+00	 0.000E+00	 1.096E+00	-3.022E-01	 6.828E+00	 1.096E+00	-1.788E-01	 8.022E+00	 2.946E+00	 5.715E-01	-8.318E-02	 1.140E+00	 2.193E+00	 8.586E+00	-1.696E+00	 1.751E-01	 1.140E+00	-6.443E+00	 3.407E+00
   14.3000	 1.430E+01	 0.000E+00	 0.000E+00	 1.104E+00	-6.954E-01	 7.031E+00	 1.104E+00	 2.117E-01	 7.819E+00	 2.961E+00	 1.237E+00	-8.460E-02	 1.136E+00	 2.209E+00	 8.552E+00	-1.118E+00	 1.287E+00	 1.136E+00	-6.432E+00	 3.407E+00
   14.4000	 1.440E+01	 0.000E+00	 0.000E+00	 1.112E+00	-8.431E-01	 7.448E+00	 1.112E+00	 3.573E-01	 7.402E+00	 2.976E+00	 1.484E+00	-8.593E-02	 1.128E+00	 2.224E+00	 8.497E+00	 6.469E-02	 1.703E+00	 1.128E+00	-6.421E+00	 3.407E+00
   14.5000	 1.450E+01	 0.000E+00	 0.000E+00	 1.120E+00	-6.659E-01	 7.852E+00	 1.120E+00	 1.788E-01	 6.998E+00	 2.990E+00	 1.175E+00	-8.716E-02	 1.118E+00	 2.240E+00	 8.418E+00	 1.212E+00	 1.199E+00	 1.118E+00	-6.411E+00	 3.407E+00
   14.6000	 1.460E+01	 0.000E+00	 0.000E+00	 1.128E+00	-2.606E-01	 8.025E+00	 1.128E+00	-2.282E-01	 6.825E+00	 3.006E+00	 4.769E-01	-8.830E-02	 1.110E+00	 2.255E+00	 8.355E+00	 1.704E+00	 4.596E-02	 1.110E+00	-6.400E+00	 3.407E+00
   14.7000	 1.470E+01	 0.000E+00	 0.000E+00	 1.135E+00	 1.536E-01	 7.874E+00	 1.135E+00	-6.438E-01	 6.976E+00	 3.018E+00	-2.370E-01	-8.985E-02	 1.099E+00	 2.269E+00	 8.272E+00	 1.275E+00	-1.132E+00	 1.099E+00	-6.390E+00	 3.407E+00
   14.8000	 1.480E+01	 0.000E+00	 0.000E+00	 1.142E+00	 3.520E-01	 7.480E+00	 1.142E+00	-8.441E-01	 7.370E+00	 3.031E+00	-5.821E-01	-9.142E-02	 1.090E+00	 2.284E+00	 8.204E+00	 1.564E-01	-1.697E+00	 1.090E+00	-6.380E+00	 3.407E+00
   14.9000	 1.490E+01	 0.000E+00	 0.000E+00	 1.150E+00	 2.266E-01	 7.056E+00	 1.150E+00	-7.217E-01	 7.794E+00	 3.045E+00	-3.733E-01	-9.286E-02	 1.085E+00	 2.299E+00	 8.171E+00	-1.047E+00	-1.346E+00	 1.085E+00	-6.369E+00	 3.407E+00
   15.0000	 1.500E+01	 0.000E+00	 0.000E+00	 1.157E+00	-1.555E-01	 6.832E+00	 1.157E+00	-3.431E-01	 8.018E+00	 3.059E+00	 2.737E-01	-9.425E-02	 1.083E+00	 2.315E+00	 8.154E+00	-1.684E+00	-2.662E-01	 1.083E+00	-6.359E+00	 3.407E+00
   15.1000	 1.510E+01	 0.000E+00	 0.000E+00	 1.165E+00	-5.878E-01	 6.928E+00	 1.165E+00	 8.659E-02	 7.922E+00	 3.073E+00	 1.006E+00	-9.558E-02	 1.078E+00	 2.329E+00	 8.116E+00	-1.411E+00	 9.570E-01	 1.078E+00	-6.348E+00	 3.407E+00
   15.2000	 1.520E+01	 0.000E+00	 0.000E+00	 1.172E+00	-8.383E-01	 7.293E+00	 1.172E+00	 3.335E-01	 7.557E+00	 3.087E+00	 1.429E+00	-9.687E-02	 1.076E+00	 2.345E+00	 8.100E+00	-3.749E-01	 1.663E+00	 1.076E+00	-6.338E+00	 3.407E+00
   15.3000	 1.530E+01	 0.000E+00	 0.000E+00	 1.180E+00	-7.720E-01	 7.729E+00	 1.180E+00	 2.637E-01	 7.121E+00	 3.102E+00	 1.311E+00	-9.816E-02	 1.074E+00	 2.360E+00	 8.086E+00	 8.635E-01	 1.470E+00	 1.074E+00	-6.327E+00	 3.407E+00
   15.4000	 1.540E+01	 0.000E+00	 0.000E+00	 1.188E+00	-4.259E-01	 8.001E+00	 1.188E+00	-8.621E-02	 6.849E+00	 3.116E+00	 7.154E-01	-9.946E-02	 1.072E+00	 2.375E+00	 8.074E+00	 1.635E+00	 4.820E-01	 1.072E+00	-6.317E+00	 3.407E+00
   15.5000	 1.550E+01	 0.000E+00	 0.000E+00	 1.195E+00	 1.207E-02	 7.962E+00	 1.195E+00	-5.280E-01	 6.889E+00	 3.130E+00	-3.607E-02	-1.008E-01	 1.072E+00	 2.390E+00	 8.074E+00	 1.523E+00	-7.663E-01	 1.072E+00	-6.306E+00	 3.407E+00
   15.6000	 1.560E+01	 0.000E+00	 0.000E+00	 1.203E+00	 3.036E-01	 7.632E+00	 1.203E+00	-8.242E-01	 7.218E+00	 3.145E+00	-5.361E-01	-1.021E-01	 1.077E+00	 2.405E+00	 8.110E+00	 5.870E-01	-1.600E+00	 1.077E+00	-6.296E+00	 3.407E+00
   15.7000	 1.570E+01	 0.000E+00	 0.000E+00	 1.210E+00	 2.906E-01	 7.190E+00	 1.210E+00	-8.152E-01	 7.660E+00	 3.158E+00	-5.164E-01	-1.032E-01	 1.081E+00	 2.419E+00	 8.138E+00	-6.659E-01	-1.569E+00	 1.081E+00	-6.286E+00	 3.407E+00
   15.8000	 1.580E+01	 0.000E+00	 0.000E+00	 1.217E+00	-2.107E-02	 6.876E+00	 1.217E+00	-5.071E-01	 7.974E+00	 3.172E+00	 1.314E-02	-1.044E-01	 1.084E+00	 2.433E+00	 8.160E+00	-1.559E+00	-6.896E-01	 1.084E+00	-6.277E+00	 3.407E+00
   15.9000	 1.590E+01	 0.000E+00	 0.000E+00	 1.224E+00	-4.643E-01	 6.858E+00	 1.224E+00	-6.771E-02	 7.992E+00	 3.187E+00	 7.676E-01	-1.056E-01	 1.088E+00	 2.447E+00	 8.194E+00	-1.609E+00	 5.627E-01	 1.088E+00	-6.267E+00	 3.407E+00
   16.0000	 1.600E+01	 0.000E+00	 0.000E+00	 1.231E+00	-8.004E-01	 7.147E+00	 1.231E+00	 2.643E-01	 7.703E+00	 3.202E+00	 1.339E+00	-1.067E-01	 1.094E+00	 2.462E+00	 8.234E+00	-7.893E-01	 1.511E+00	 1.094E+00	-6.257E+00	 3.407E+00
   16.1000	 1.610E+01	 0.000E+00	 0.000E+00	 1.238E+00	-8.488E-01	 7.586E+00	 1.238E+00	 3.085E-01	 7.264E+00	 3.217E+00	 1.421E+00	-1.079E-01	 1.100E+00	 2.477E+00	 8.281E+00	 4.572E-01	 1.642E+00	 1.100E+00	-6.246E+00	 3.407E+00
   16.2000	 1.620E+01	 0.000E+00	 0.000E+00	 1.246E+00	-5.846E-01	 7.938E+00	 1.246E+00	 3.951E-02	 6.912E+00	 3.235E+00	 9.697E-01	-1.092E-01	 1.110E+00	 2.492E+00	 8.357E+00	 1.456E+00	 8.856E-01	 1.110E+00	-6.236E+00	 3.407E+00
   16.3000	 1.630E+01	 0.000E+00	 0.000E+00	 1.253E+00	-1.507E-01	 8.013E+00	 1.253E+00	-3.971E-01	 6.837E+00	 3.248E+00	 2.271E-01	-1.106E-01	 1.111E+00	 2.506E+00	 8.368E+00	 1.668E+00	-3.496E-01	 1.111E+00	-6.227E+00	 3.407E+00
   16.4000	 1.640E+01	 0.000E+00	 0.000E+00	 1.259E+00	 2.172E-01	 7.770E+00	 1.259E+00	-7.665E-01	 7.080E+00	 3.259E+00	-4.042E-01	-1.123E-01	 1.108E+00	 2.518E+00	 8.340E+00	 9.783E-01	-1.396E+00	 1.108E+00	-6.218E+00	 3.407E+00
   16.5000	 1.650E+01	 0.000E+00	 0.000E+00	 1.265E+00	 3.191E-01	 7.340E+00	 1.265E+00	-8.701E-01	 7.510E+00	 3.271E+00	-5.816E-01	-1.139E-01	 1.104E+00	 2.530E+00	 8.314E+00	-2.407E-01	-1.687E+00	 1.104E+00	-6.209E+00	 3.407E+00
   16.6000	 1.660E+01	 0.000E+00	 0.000E+00	 1.271E+00	 9.994E-02	 6.957E+00	 1.271E+00	-6.518E-01	 7.893E+00	 3.282E+00	-2.121E-01	-1.154E-01	 1.097E+00	 2.543E+00	 8.260E+00	-1.330E+00	-1.067E+00	 1.097E+00	-6.201E+00	 3.407E+00
   16.7000	 1.670E+01	 0.000E+00	 0.000E+00	 1.278E+00	-3.221E-01	 6.826E+00	 1.278E+00	-2.300E-01	 8.024E+00	 3.293E+00	 5.025E-01	-1.168E-01	 1.086E+00	 2.555E+00	 8.180E+00	-1.700E+00	 1.307E-01	 1.086E+00	-6.192E+00	 3.407E+00
   16.8000	 1.680E+01	 0.000E+00	 0.000E+00	 1.284E+00	-7.193E-01	 7.020E+00	 1.284E+00	 1.668E-01	 7.831E+00	 3.305E+00	 1.175E+00	-1.183E-01	 1.076E+00	 2.568E+00	 8.103E+00	-1.151E+00	 1.257E+00	 1.076E+00	-6.183E+00	 3.407E+00
   16.9000	 1.690E+01	 0.000E+00	 0.000E+00	 1.291E+00	-8.777E-01	 7.432E+00	 1.291E+00	 3.234E-01	 7.418E+00	 3.319E+00	 1.442E+00	-1.196E-01	 1.073E+00	 2.582E+00	 8.079E+00	 2.016E-02	 1.704E+00	 1.073E+00	-6.174E+00	 3.407E+00
   17.0000	 1.700E+01	 0.000E+00	 0.000E+00	 1.298E+00	-7.118E-01	 7.841E+00	 1.298E+00	 1.550E-01	 7.009E+00	 3.333E+00	 1.156E+00	-1.208E-01	 1.074E+00	 2.596E+00	 8.084E+00	 1.180E+00	 1.230E+00	 1.074E+00	-6.164E+00	 3.407E+00
   17.1000	 1.710E+01	 0.000E+00	 0.000E+00	 1.305E+00	-3.113E-01	 8.025E+00	 1.305E+00	-2.476E-01	 6.825E+00	 3.347E+00	 4.701E-01	-1.221E-01	 1.073E+00	 2.609E+00	 8.079E+00	 1.702E+00	 9.047E-02	 1.073E+00	-6.155E+00	 3.407E+00
   17.2000	 1.720E+01	 0.000E+00	 0.000E+00	 1.311E+00	 1.063E-01	 7.884E+00	 1.311E+00	-6.674E-01	 6.966E+00	 3.361E+00	-2.452E-01	-1.234E-01	 1.072E+00	 2.623E+00	 8.074E+00	 1.304E+00	-1.098E+00	 1.072E+00	-6.146E+00	 3.407E+00
   17.3000	 1.730E+01	 0.000E+00	 0.000E+00	 1.318E+00	 3.148E-01	 7.496E+00	 1.318E+00	-8.781E-01	 7.354E+00	 3.375E+00	-6.035E-01	-1.246E-01	 1.072E+00	 2.636E+00	 8.071E+00	 2.007E-01	-1.693E+00	 1.072E+00	-6.136E+00	 3.407E+00
   17.4000	 1.740E+01	 0.000E+00	 0.000E+00	 1.326E+00	 2.002E-01	 7.069E+00	 1.326E+00	-7.669E-01	 7.781E+00	 3.392E+00	-4.092E-01	-1.260E-01	 1.077E+00	 2.651E+00	 8.107E+00	-1.011E+00	-1.372E+00	 1.077E+00	-6.126E+00	 3.407E+00