
FAST Summary File

Predictions were generated on 11-Oct-2013 at 14:30:55 using FAST (v8.03.02b-bjj, 3-Oct-2013), compiled for 32-bit systems using single precision
  compiled with
    NWTC Subroutine Library (v2.03.00b-bjj, 1-Oct-2013)
    ElastoDyn (v1.01.02b-bjj, 03-Oct-2013)
    ServoDyn (v1.01.01b-bjj, 03-Oct-2013)
    AeroDyn (v14.02.00c-mlb, 02-Oct-2013)
    InflowWind (v2.00.00b-adp, 17-Sept-2013)
    HydroDyn (unknown version, unknown date) [not called]
    SubDyn (v0.04.00a-rrd, 3-Oct-2013)
    MAP (unknown version, unknown date) [not called]


Modeling an onshore turbine
Description from the FAST input file: 
  FAST Certification Test #19: NREL 5.0 MW Baseline Wind Turbine with Monopile RF Configuration, for use in offshore analysis

Interpolation order for input/output time histories: 2 (quadratic)
Number of correction iterations:  0


   Requested Channels in FAST Output File(s) 
  -------------------------------------------
  Number  Name        Units       Generated by
  ------  ----------  ----------  ------------
       1  Time        (s)         FAST
       2  WindVxi     (m/s)       InflowWind
       3  WindVyi     (m/s)       InflowWind
       4  WindVzi     (m/s)       InflowWind
       5  OoPDefl1    (m)         ElastoDyn
       6  IPDefl1     (m)         ElastoDyn
       7  TwstDefl1   (deg)       ElastoDyn
       8  BldPitch1   (deg)       ElastoDyn
       9  Azimuth     (deg)       ElastoDyn
      10  RotSpeed    (rpm)       ElastoDyn
      11  GenSpeed    (rpm)       ElastoDyn
      12  TwHt1TPxi   (m)         ElastoDyn
      13  TwHt1TPyi   (m)         ElastoDyn
      14  TTDspTwst   (deg)       ElastoDyn
      15  PtfmTDxi    (m)         ElastoDyn
      16  PtfmTDyi    (m)         ElastoDyn
      17  PtfmTDzi    (m)         ElastoDyn
      18  PtfmRDxi    (deg)       ElastoDyn
      19  PtfmRDyi    (deg)       ElastoDyn
      20  PtfmRDzi    (deg)       ElastoDyn
      21  Spn2MLxb1   (kN·m)      ElastoDyn
      22  Spn2MLyb1   (kN·m)      ElastoDyn
      23  RootFxc1    (kN)        ElastoDyn
      24  RootFyc1    (kN)        ElastoDyn
      25  RootFzc1    (kN)        ElastoDyn
      26  RootMxc1    (kN·m)      ElastoDyn
      27  RootMyc1    (kN·m)      ElastoDyn
      28  RootMzc1    (kN·m)      ElastoDyn
      29  RotTorq     (kN·m)      ElastoDyn
      30  LSSGagMya   (kN·m)      ElastoDyn
      31  LSSGagMza   (kN·m)      ElastoDyn
      32  YawBrFxp    (kN)        ElastoDyn
      33  YawBrFyp    (kN)        ElastoDyn
      34  YawBrFzp    (kN)        ElastoDyn
      35  YawBrMxp    (kN·m)      ElastoDyn
      36  YawBrMyp    (kN·m)      ElastoDyn
      37  YawBrMzp    (kN·m)      ElastoDyn
      38  GenPwr      (kW)        ServoDyn
      39  GenTq       (kN·m)      ServoDyn
      40  ReactXss    (N)         SubDyn
      41  ReactYss    (N)         SubDyn
      42  ReactZss    (N)         SubDyn
      43  ReactMXss   (Nm)        SubDyn
      44  ReactMYss   (Nm)        SubDyn
      45  ReactMZss   (Nm)        SubDyn
      46  IntfXss     (N)         SubDyn
      47  IntfYss     (N)         SubDyn
      48  IntfZss     (N)         SubDyn
      49  IntfMXss    (Nm)        SubDyn
      50  IntfMYss    (Nm)        SubDyn
      51  IntfMZss    (Nm)        SubDyn
      52  IntfTDXss   (m)         SubDyn
      53  IntfTDYss   (m)         SubDyn
      54  IntfTDZss   (m)         SubDyn
      55  IntfRDXss   (rad)       SubDyn
      56  IntfRDYss   (rad)       SubDyn
      57  IntfRDZss   (rad)       SubDyn
      58  IntfTAXss   (m/s^2)     SubDyn
      59  IntfTAYss   (m/s^2)     SubDyn
      60  IntfTAZss   (m/s^2)     SubDyn
      61  IntfRAXss   (rad/s^2)   SubDyn
      62  IntfRAYss   (rad/s^2)   SubDyn
      63  IntfRAZss   (rad/s^2)   SubDyn
      64  M1J1FKxe    (N)         SubDyn
      65  M1J1FKye    (N)         SubDyn
      66  M1J1FKze    (N)         SubDyn
      67  M1J1MKxe    (N*m)       SubDyn
      68  M1J1MKye    (N*m)       SubDyn
      69  M1J1MKze    (N*m)       SubDyn
      70  M1J1FMxe    (N)         SubDyn
      71  M1J1FMye    (N)         SubDyn
      72  M1J1FMze    (N)         SubDyn
      73  M1J1MMxe    (N*m)       SubDyn
      74  M1J1MMye    (N*m)       SubDyn
      75  M1J1MMze    (N*m)       SubDyn
      76  M1J2FKxe    (N)         SubDyn
      77  M1J2FKye    (N)         SubDyn
      78  M1J2FKze    (N)         SubDyn
      79  M1J2MKxe    (N*m)       SubDyn
      80  M1J2MKye    (N*m)       SubDyn
      81  M1J2MKze    (N*m)       SubDyn
      82  M1J2FMxe    (N)         SubDyn
      83  M1J2FMye    (N)         SubDyn
      84  M1J2FMze    (N)         SubDyn
      85  M1J2MMxe    (N*m)       SubDyn
      86  M1J2MMye    (N*m)       SubDyn
      87  M1J2MMze    (N*m)       SubDyn
