
FAST Summary File

Predictions were generated on 03-Oct-2013 at 23:57:17 using FAST (v8.03.02b-bjj, 3-Oct-2013), compiled for 32-bit systems using single precision
  compiled with
    NWTC Subroutine Library (v2.03.00b-bjj, 1-Oct-2013)
    ElastoDyn (v1.01.02b-bjj, 03-Oct-2013)
    ServoDyn (v1.01.01b-bjj, 03-Oct-2013)
    AeroDyn (v14.02.00c-mlb, 02-Oct-2013)
    InflowWind (v2.00.00b-adp, 17-Sept-2013)
    HydroDyn (unknown version, unknown date) [not called]
    SubDyn (unknown version, unknown date) [not called]
    MAP (unknown version, unknown date) [not called]


Modeling an onshore turbine
Description from the FAST input file: 
  FAST Certification Test #15: SWRT 3-bladed upwind turbine with many DOFs, variable speed control, free yaw, tail-furl, EOG01 event

Interpolation order for input/output time histories: 0 (nearest neighbor)
Number of correction iterations:  0


   Requested Channels in FAST Output File(s) 
  -------------------------------------------
  Number  Name        Units       Generated by
  ------  ----------  ----------  ------------
       1  Time        (s)         FAST
       2  WindVxi     m/s         InflowWind
       3  WindVyi     m/s         InflowWind
       4  WindVzi     m/s         InflowWind
       5  TipClrnc1   (m)         ElastoDyn
       6  TipClrnc2   (m)         ElastoDyn
       7  TipClrnc3   (m)         ElastoDyn
       8  RotSpeed    (rpm)       ElastoDyn
       9  TailFurlP   (deg)       ElastoDyn
      10  TailFurlV   (deg/s)     ElastoDyn
      11  TailFurlA   (deg/s^2)   ElastoDyn
      12  NacYawP     (deg)       ElastoDyn
      13  RotThrust   (kN)        ElastoDyn
      14  TFrlBrM     (kN·m)      ElastoDyn
