
FAST Summary File

Predictions were generated on 28-Jan-2014 at 21:54:53 using FAST (v8.05.01a-bjj, 27-Jan-2014), compiled for 32-bit systems using single precision
  compiled with
    NWTC Subroutine Library (v2.03.00d-bjj, 22-Jan-2014)
    ElastoDyn (v1.01.02b-bjj, 03-Oct-2013)
    ServoDyn (v1.01.01b-bjj, 03-Oct-2013)
    AeroDyn (v14.02.01a-bjj, 07-Jan-2014)
    InflowWind (v2.00.01a-bjj, 22-Jan-2014)
    HydroDyn (v2.00.02d-gjh, 23-Jan-2014)
    SubDyn (v1.00.00b-rrd, 12-Dec-2013)
    MAP (unknown version, unknown date) [not called]
    FEAMooring (unknown version, unknown date) [not called]


Modeling a fixed-bottom offshore turbine
Description from the FAST input file: 
  FAST Certification Test #21: NREL 5.0 MW Baseline Offshore Turbine with OC4 Jacket Configuration

Interpolation order for input/output time histories: 2 (quadratic)
Number of correction iterations:  1
Number of rows in Jacobian matrix used for coupling ElastoDyn, SubDyn, and HydroDyn:   9084


   Requested Time Steps  
  -------------------------------------------------
  Component          Time Step (s)    Subcycles (-)
  -----------------  ---------------  -------------
  FAST (glue code)    2.000E-04
  ElastoDyn           2.000E-04              1
  AeroDyn             2.000E-04              1
  ServoDyn            2.000E-04              1
  HydroDyn            2.000E-04              1
  SubDyn              2.000E-04              1
  FAST output files   5.000E-03             25^-1


   Requested Channels in FAST Output File(s) 
  -------------------------------------------
  Number  Name        Units       Generated by
  ------  ----------  ----------  ------------
       1  Time        (s)         FAST
       2  WindVxi     (m/s)       InflowWind
       3  WindVyi     (m/s)       InflowWind
       4  WindVzi     (m/s)       InflowWind
       5  RotThrust   (kN)        ElastoDyn
       6  TwrBsFxt    (kN)        ElastoDyn
       7  TwrBsFyt    (kN)        ElastoDyn
       8  TwrBsFzt    (kN)        ElastoDyn
       9  TwrBsMzt    (kN·m)      ElastoDyn
      10  PtfmSurge   (m)         ElastoDyn
      11  PtfmSway    (m)         ElastoDyn
      12  PtfmHeave   (m)         ElastoDyn
      13  PtfmRoll    (deg)       ElastoDyn
      14  PtfmPitch   (deg)       ElastoDyn
      15  PtfmYaw     (deg)       ElastoDyn
      16  GenPwr      (kW)        ServoDyn
      17  GenTq       (kN·m)      ServoDyn
      18  Wave1Elev   (m)         HydroDyn
      19  M1N1FVxi    (m/s)       HydroDyn
      20  ReactXss    (N)         SubDyn
      21  ReactYss    (N)         SubDyn
      22  ReactZss    (N)         SubDyn
      23  ReactMXss   (Nm)        SubDyn
      24  ReactMYss   (Nm)        SubDyn
      25  ReactMZss   (Nm)        SubDyn
      26  IntfXss     (N)         SubDyn
      27  IntfYss     (N)         SubDyn
      28  IntfZss     (N)         SubDyn
      29  IntfMXss    (Nm)        SubDyn
      30  IntfMYss    (Nm)        SubDyn
      31  IntfMZss    (Nm)        SubDyn
      32  IntfTDXss   (m)         SubDyn
      33  IntfTDYss   (m)         SubDyn
      34  IntfTDZss   (m)         SubDyn
      35  IntfRDXss   (rad)       SubDyn
      36  IntfRDYss   (rad)       SubDyn
      37  IntfRDZss   (rad)       SubDyn
      38  IntfTAXss   (m/s^2)     SubDyn
      39  IntfTAYss   (m/s^2)     SubDyn
      40  IntfTAZss   (m/s^2)     SubDyn
      41  IntfRAXss   (rad/s^2)   SubDyn
      42  IntfRAYss   (rad/s^2)   SubDyn
      43  IntfRAZss   (rad/s^2)   SubDyn
