
Predictions were generated on 08-Oct-2015 at 00:12:32 using FAST (v8.12.00a-bjj, 6-Oct-2015), compiled as a 32-bit application using single precision
 linked with  NWTC Subroutine Library (v2.06.05a-bjj, 5-Oct-2015); ElastoDyn (v1.03.00a-bjj, 5-Oct-2015); InflowWind (v3.01.00a-adp, 5-Oct-2015); AeroDyn14 (v14.04.00a-bjj, 6-Oct-2015); ServoDyn (v1.03.01a-bjj, 5-Oct-2015)

Description from the FAST input file: FAST Certification Test #08: AOC 15/50 with many DOFs with fixed yaw error and steady wind. Many parameters are pure fiction.

Time      	Wind1VelX 	Wind1VelY 	Wind1VelZ 	LSSGagPxa 	TipDxb1   	TipDxb2   	TipDyb1   	TipDyb2   	RollDefl1 	RollDefl2 	PtchDefl1 	PtchDefl2 	Spn1ALxb1 	Spn1ALyb1 	HSShftV   	TTDspRoll 	TTDspPtch 	YawBrRVxp 	YawBrRVyp 	YawBrRAxp 	YawBrRAyp 	RootFxb1  	RootFyb1  	Spn2MLxb1 	Spn2MLyb1 	LSShftFya 	LSShftFza 	YawBrFxn  	YawBrFyn  
(s)       	(m/s)     	(m/s)     	(m/s)     	(deg)     	(m)       	(m)       	(m)       	(m)       	(deg)     	(deg)     	(deg)     	(deg)     	(m/s^2)   	(m/s^2)   	(rpm)     	(deg)     	(deg)     	(deg/s)   	(deg/s)   	(deg/s^2) 	(deg/s^2) 	(kN)      	(kN)      	(kN·m)    	(kN·m)    	(kN)      	(kN)      	(kN)      	(kN)      
   10.0000	 9.526E+00	-5.500E+00	 0.000E+00	 2.484E+02	 1.057E-02	-7.868E-03	 1.722E-03	-2.723E-03	-2.689E-02	 3.650E-02	 1.009E-01	-2.211E-01	 4.956E+00	 5.420E-01	 1.812E+03	 3.869E-02	 1.052E-01	-4.590E-03	-5.456E-02	-5.015E-01	-1.451E+00	 3.407E-01	 8.468E-01	-3.123E-01	 4.313E-01	 6.041E+00	 2.391E+00	 6.640E+00	-9.287E-02
   10.0500	 9.526E+00	-5.500E+00	 0.000E+00	 2.676E+02	 6.139E-03	-8.633E-03	 2.367E-03	-4.884E-03	-3.605E-02	 6.714E-02	 1.167E-02	-2.259E-01	 5.041E+00	 6.029E-01	 1.812E+03	 3.802E-02	 1.015E-01	-2.135E-02	-7.981E-02	-3.500E-01	 1.883E-01	 2.410E-01	 9.440E-01	-3.826E-01	 2.414E-01	 6.458E+00	 1.888E-01	 6.348E+00	-1.305E-01
   10.1000	 9.526E+00	-5.500E+00	 0.000E+00	 2.869E+02	 5.207E-04	-5.516E-03	 2.532E-03	-6.413E-03	-3.811E-02	 8.862E-02	-8.728E-02	-1.659E-01	 5.186E+00	 5.855E-01	 1.812E+03	 3.652E-02	 9.718E-02	-3.777E-02	-1.092E-01	-1.634E-01	-1.123E+00	 6.205E-02	 9.067E-01	-3.582E-01	 3.603E-02	 6.220E+00	-1.943E+00	 6.040E+00	-1.014E-01
   10.1500	 9.526E+00	-5.500E+00	 0.000E+00	 3.061E+02	-5.668E-04	-3.391E-03	 1.622E-03	-7.611E-03	-2.530E-02	 1.054E-01	-1.074E-01	-1.276E-01	 5.327E+00	 6.382E-01	 1.812E+03	 3.478E-02	 9.214E-02	-3.246E-02	-7.718E-02	-2.872E-01	-1.519E-01	 1.223E-02	 6.964E-01	-2.121E-01	 9.768E-04	 5.209E+00	-3.951E+00	 5.657E+00	-1.266E-01
   10.2000	 9.526E+00	-5.500E+00	 0.000E+00	 3.254E+02	 1.344E-04	-4.883E-03	 6.935E-04	-8.176E-03	-1.175E-02	 1.130E-01	-7.467E-02	-1.690E-01	 5.427E+00	 6.797E-01	 1.812E+03	 3.308E-02	 8.765E-02	-2.513E-02	-7.221E-02	 4.415E-01	 1.917E+00	-5.632E-02	 4.210E-01	-9.242E-02	 4.627E-02	 3.742E+00	-5.403E+00	 5.307E+00	-4.172E-02
   10.2500	 9.526E+00	-5.500E+00	 0.000E+00	 3.446E+02	-3.678E-03	-6.904E-03	-1.038E-03	-7.657E-03	 1.288E-02	 1.053E-01	-1.373E-01	-2.232E-01	 5.500E+00	 6.695E-01	 1.812E+03	 3.164E-02	 8.496E-02	-3.265E-02	-4.464E-02	 4.501E-01	 1.485E+00	-2.306E-01	-8.910E-03	 2.018E-01	-7.833E-02	 1.704E+00	-6.248E+00	 5.328E+00	-1.229E-02
   10.3000	 9.526E+00	-5.500E+00	 0.000E+00	 3.852E+00	-9.328E-03	-5.643E-03	-2.224E-03	-7.175E-03	 2.973E-02	 9.836E-02	-2.404E-01	-2.061E-01	 5.491E+00	 6.304E-01	 1.812E+03	 3.086E-02	 8.521E-02	-5.314E-03	 3.434E-02	 8.061E-02	 4.411E-02	-4.150E-01	-4.168E-01	 3.965E-01	-2.801E-01	-4.048E-01	-6.477E+00	 5.474E+00	 3.379E-02
   10.3500	 9.526E+00	-5.500E+00	 0.000E+00	 2.309E+01	-1.052E-02	-2.154E-03	-4.200E-03	-5.903E-03	 5.752E-02	 8.051E-02	-2.627E-01	-1.372E-01	 5.447E+00	 5.966E-01	 1.812E+03	 3.093E-02	 8.754E-02	 1.156E-02	 7.426E-02	 3.818E-01	 1.471E+00	-4.762E-01	-8.849E-01	 6.956E-01	-3.024E-01	-2.518E+00	-5.905E+00	 5.512E+00	 6.025E-02
   10.4000	 9.526E+00	-5.500E+00	 0.000E+00	 4.234E+01	-6.470E-03	-9.093E-04	-6.069E-03	-4.322E-03	 8.373E-02	 5.833E-02	-1.870E-01	-1.116E-01	 5.232E+00	 5.919E-01	 1.812E+03	 3.184E-02	 9.254E-02	 2.263E-02	 1.034E-01	 1.478E-01	-8.629E-01	-3.711E-01	-1.287E+00	 9.179E-01	-1.404E-01	-4.388E+00	-4.814E+00	 5.774E+00	 8.139E-02
   10.4500	 9.526E+00	-5.500E+00	 0.000E+00	 6.158E+01	-2.236E-03	-3.434E-03	-7.358E-03	-2.037E-03	 1.020E-01	 2.695E-02	-1.008E-01	-1.318E-01	 5.168E+00	 5.553E-01	 1.812E+03	 3.340E-02	 9.741E-02	 4.226E-02	 1.145E-01	 2.110E-01	 1.014E+00	-3.013E-01	-1.569E+00	 1.056E+00	 1.992E-02	-5.760E+00	-3.026E+00	 5.850E+00	 1.782E-02
   10.5000	 9.526E+00	-5.500E+00	 0.000E+00	 8.082E+01	-2.683E-03	-5.343E-03	-8.287E-03	-3.928E-04	 1.146E-01	 2.982E-03	-1.271E-01	-2.017E-01	 5.090E+00	 6.038E-01	 1.812E+03	 3.536E-02	 1.020E-01	 3.988E-02	 6.053E-02	 3.789E-01	-1.221E-01	-2.889E-01	-1.765E+00	 1.183E+00	-1.897E-02	-6.540E+00	-1.057E+00	 6.154E+00	 3.379E-02
   10.5500	 9.526E+00	-5.500E+00	 0.000E+00	 1.001E+02	-5.322E-03	 1.702E-03	-7.831E-03	 5.082E-04	 1.077E-01	-1.032E-02	-1.938E-01	-8.974E-02	 5.008E+00	 6.203E-01	 1.812E+03	 3.716E-02	 1.045E-01	 1.953E-02	 1.674E-02	-6.289E-01	-1.424E+00	-3.267E-01	-1.730E+00	 1.118E+00	-1.248E-01	-6.415E+00	 1.141E+00	 6.507E+00	-3.121E-02
   10.6000	 9.526E+00	-5.500E+00	 0.000E+00	 1.193E+02	-5.537E-03	 9.777E-03	-7.419E-03	 1.646E-03	 1.017E-01	-2.569E-02	-2.061E-01	 9.079E-02	 5.022E+00	 6.149E-01	 1.812E+03	 3.801E-02	 1.049E-01	 1.498E-02	 1.589E-03	-4.656E-01	-1.309E+00	-2.991E-01	-1.606E+00	 1.064E+00	-1.395E-01	-5.701E+00	 3.221E+00	 6.600E+00	-7.601E-02
   10.6500	 9.526E+00	-5.500E+00	 0.000E+00	 1.385E+02	-2.625E-03	 9.351E-03	-6.282E-03	 1.919E-03	 8.581E-02	-2.901E-02	-1.475E-01	 1.024E-01	 5.040E+00	 5.764E-01	 1.812E+03	 3.817E-02	 1.033E-01	-4.476E-03	-5.321E-02	-2.347E-01	-2.869E-01	-2.188E-01	-1.304E+00	 8.767E-01	-3.308E-02	-4.250E+00	 4.853E+00	 6.462E+00	-9.378E-02
   10.7000	 9.526E+00	-5.500E+00	 0.000E+00	 1.578E+02	-8.325E-04	 2.591E-03	-4.699E-03	 2.674E-03	 6.360E-02	-4.035E-02	-1.112E-01	-5.665E-02	 5.123E+00	 5.933E-01	 1.812E+03	 3.752E-02	 1.004E-01	-2.289E-02	-6.500E-02	-3.831E-01	-8.063E-01	-1.774E-01	-9.030E-01	 6.438E-01	 2.670E-02	-2.399E+00	 6.060E+00	 6.261E+00	-1.173E-01
   10.7500	 9.526E+00	-5.500E+00	 0.000E+00	 1.770E+02	-2.213E-03	-8.808E-04	-2.718E-03	 2.116E-03	 3.646E-02	-3.271E-02	-1.106E-01	-1.317E-01	 5.098E+00	 6.356E-01	 1.812E+03	 3.611E-02	 9.604E-02	-2.778E-02	-9.196E-02	 1.629E-01	 8.613E-01	-2.019E-01	-4.435E-01	 3.863E-01	-1.095E-01	-2.646E-01	 6.466E+00	 5.890E+00	-1.115E-01
   10.8000	 9.526E+00	-5.500E+00	 0.000E+00	 1.963E+02	-5.875E-03	 4.090E-04	-5.420E-04	 1.144E-03	 4.315E-03	-1.821E-02	-2.416E-01	-7.400E-02	 5.288E+00	 5.998E-01	 1.812E+03	 3.463E-02	 9.198E-02	-3.385E-02	-9.611E-02	 1.877E-01	-4.140E-01	-1.427E-01	 2.867E-02	 1.040E-01	-1.759E-01	 1.918E+00	 6.321E+00	 5.669E+00	-8.245E-02
   10.8500	 9.526E+00	-5.500E+00	 0.000E+00	 2.155E+02	-3.758E-04	-9.056E-04	 1.494E-04	-1.943E-04	-5.179E-03	 1.107E-03	-1.264E-01	-8.042E-02	 5.327E+00	 6.324E-01	 1.812E+03	 3.326E-02	 8.812E-02	-3.104E-02	-6.166E-02	-5.559E-01	-1.962E-01	 1.560E-02	 3.586E-01	-1.118E-02	 4.296E-02	 3.771E+00	 5.307E+00	 5.531E+00	-5.167E-02
   10.9000	 9.526E+00	-5.500E+00	 0.000E+00	 2.348E+02	 8.223E-03	-6.657E-03	 1.494E-03	-1.741E-03	-2.298E-02	 2.288E-02	 8.262E-02	-1.907E-01	 5.442E+00	 6.617E-01	 1.812E+03	 3.173E-02	 8.588E-02	-1.818E-02	-5.292E-03	 5.105E-01	 1.579E+00	 1.343E-01	 7.241E-01	-2.735E-01	 3.802E-01	 5.320E+00	 3.746E+00	 5.405E+00	-1.060E-02
   10.9500	 9.526E+00	-5.500E+00	 0.000E+00	 2.540E+02	 8.983E-03	-1.092E-02	 1.803E-03	-3.104E-03	-2.744E-02	 4.189E-02	 9.288E-02	-2.790E-01	 5.435E+00	 6.793E-01	 1.812E+03	 3.114E-02	 8.655E-02	-5.417E-03	 2.712E-02	 3.786E-01	 8.208E-01	 1.807E-01	 8.716E-01	-3.022E-01	 3.814E-01	 6.172E+00	 1.805E+00	 5.493E+00	 4.992E-02
   11.0000	 9.526E+00	-5.500E+00	 0.000E+00	 2.732E+02	 2.416E-03	-8.898E-03	 2.676E-03	-5.333E-03	-4.060E-02	 7.342E-02	-6.843E-02	-2.322E-01	 5.372E+00	 6.492E-01	 1.812E+03	 3.133E-02	 8.931E-02	 1.140E-02	 8.708E-02	 2.494E-01	 9.741E-01	 1.397E-01	 9.586E-01	-4.039E-01	 9.678E-02	 6.459E+00	-3.959E-01	 5.597E+00	 5.033E-02
   11.0500	 9.526E+00	-5.500E+00	 0.000E+00	 2.925E+02	-1.820E-03	-3.859E-03	 2.430E-03	-6.735E-03	-3.699E-02	 9.325E-02	-1.447E-01	-1.300E-01	 5.342E+00	 6.176E-01	 1.812E+03	 3.215E-02	 9.354E-02	 2.411E-02	 7.539E-02	 5.301E-01	 5.293E-01	 2.879E-02	 8.607E-01	-3.242E-01	-5.569E-02	 5.982E+00	-2.495E+00	 5.752E+00	 6.916E-02
   11.1000	 9.526E+00	-5.500E+00	 0.000E+00	 3.117E+02	-3.914E-04	-2.172E-03	 1.407E-03	-7.982E-03	-2.191E-02	 1.104E-01	-8.989E-02	-1.131E-01	 5.229E+00	 5.457E-01	 1.812E+03	 3.383E-02	 9.830E-02	 3.309E-02	 8.393E-02	-2.226E-01	-2.040E+00	-2.552E-02	 6.398E-01	-1.797E-01	 2.070E-02	 4.887E+00	-4.432E+00	 6.086E+00	 3.299E-02
   11.1500	 9.526E+00	-5.500E+00	 0.000E+00	 3.310E+02	 4.835E-04	-4.223E-03	 2.392E-04	-8.095E-03	-5.172E-03	 1.117E-01	-6.063E-02	-1.612E-01	 5.077E+00	 5.950E-01	 1.812E+03	 3.570E-02	 1.016E-01	 3.922E-02	 6.434E-02	-5.832E-01	-9.182E-01	-5.718E-02	 3.159E-01	-2.349E-02	 6.825E-02	 3.222E+00	-5.721E+00	 6.234E+00	 1.082E-02
   11.2000	 9.526E+00	-5.500E+00	 0.000E+00	 3.502E+02	-3.441E-03	-5.996E-03	-1.562E-03	-7.647E-03	 2.015E-02	 1.051E-01	-1.369E-01	-2.105E-01	 5.054E+00	 6.146E-01	 1.812E+03	 3.689E-02	 1.032E-01	 2.023E-02	 2.211E-02	 3.046E-01	 6.914E-01	-1.837E-01	-1.377E-01	 2.714E-01	-7.057E-02	 1.081E+00	-6.432E+00	 6.364E+00	-3.791E-02
   11.2500	 9.526E+00	-5.500E+00	 0.000E+00	 9.450E+00	-8.190E-03	-4.105E-03	-2.805E-03	-6.934E-03	 3.765E-02	 9.493E-02	-2.275E-01	-1.784E-01	 5.000E+00	 6.171E-01	 1.812E+03	 3.776E-02	 1.038E-01	 7.010E-03	-2.131E-02	-3.697E-01	-1.299E+00	-3.213E-01	-5.590E-01	 4.646E-01	-2.408E-01	-1.059E+00	-6.405E+00	 6.547E+00	-6.184E-02
   11.3000	 9.526E+00	-5.500E+00	 0.000E+00	 2.869E+01	-8.290E-03	-1.196E-03	-5.004E-03	-5.450E-03	 6.884E-02	 7.409E-02	-2.186E-01	-1.208E-01	 5.105E+00	 6.396E-01	 1.812E+03	 3.781E-02	 1.021E-01	-5.574E-03	-3.623E-02	-3.866E-01	-3.788E-02	-4.010E-01	-1.038E+00	 7.937E-01	-2.182E-01	-3.171E+00	-5.643E+00	 6.384E+00	-1.128E-01
   11.3500	 9.526E+00	-5.500E+00	 0.000E+00	 4.793E+01	-4.926E-03	-1.323E-03	-6.496E-03	-3.775E-03	 8.981E-02	 5.056E-02	-1.541E-01	-1.225E-01	 5.134E+00	 6.336E-01	 1.812E+03	 3.703E-02	 9.945E-02	-2.343E-02	-8.040E-02	-9.714E-02	-9.616E-01	-3.424E-01	-1.385E+00	 9.600E-01	-8.314E-02	-4.865E+00	-4.327E+00	 6.175E+00	-9.490E-02
   11.4000	 9.526E+00	-5.500E+00	 0.000E+00	 6.718E+01	-3.088E-03	-5.231E-03	-7.701E-03	-1.226E-03	 1.066E-01	 1.443E-02	-1.247E-01	-2.097E-01	 5.228E+00	 6.466E-01	 1.812E+03	 3.594E-02	 9.574E-02	-2.399E-02	-6.338E-02	-4.834E-01	-8.546E-01	-3.144E-01	-1.653E+00	 1.108E+00	-2.187E-02	-6.088E+00	-2.431E+00	 5.891E+00	-1.363E-01
   11.4500	 9.526E+00	-5.500E+00	 0.000E+00	 8.642E+01	-4.770E-03	-3.664E-03	-8.173E-03	-2.742E-04	 1.130E-01	 1.728E-03	-1.675E-01	-1.532E-01	 5.368E+00	 6.184E-01	 1.812E+03	 3.458E-02	 9.160E-02	-2.215E-02	-7.499E-02	 8.213E-02	 1.081E+00	-3.713E-01	-1.770E+00	 1.176E+00	-9.677E-02	-6.570E+00	-4.186E-01	 5.556E+00	-6.840E-02
   11.5000	 9.526E+00	-5.500E+00	 0.000E+00	 1.057E+02	-6.815E-03	 4.803E-03	-7.651E-03	 9.107E-04	 1.052E-01	-1.522E-02	-2.216E-01	-3.992E-04	 5.436E+00	 5.939E-01	 1.812E+03	 3.306E-02	 8.818E-02	-3.475E-02	-5.852E-02	 4.377E-01	 1.450E+00	-3.958E-01	-1.699E+00	 1.105E+00	-1.800E-01	-6.233E+00	 1.772E+00	 5.514E+00	-3.988E-02
   11.5500	 9.526E+00	-5.500E+00	 0.000E+00	 1.249E+02	-5.510E-03	 9.772E-03	-7.135E-03	 1.707E-03	 9.779E-02	-2.678E-02	-2.041E-01	 8.159E-02	 5.431E+00	 6.368E-01	 1.812E+03	 3.192E-02	 8.709E-02	-1.667E-02	-2.253E-03	 1.001E-01	 2.429E-01	-3.276E-01	-1.535E+00	 1.023E+00	-1.362E-01	-5.330E+00	 3.689E+00	 5.582E+00	 7.155E-03
   11.6000	 9.526E+00	-5.500E+00	 0.000E+00	 1.441E+02	-2.149E-03	 6.125E-03	-5.800E-03	 2.226E-03	 7.905E-02	-3.366E-02	-1.378E-01	 2.679E-02	 5.356E+00	 6.337E-01	 1.812E+03	 3.141E-02	 8.777E-02	-1.939E-03	 3.799E-02	 2.734E-01	 1.273E+00	-2.131E-01	-1.195E+00	 8.015E-01	-1.956E-02	-3.754E+00	 5.218E+00	 5.532E+00	 3.485E-02
   11.6500	 9.526E+00	-5.500E+00	 0.000E+00	 1.634E+02	-1.094E-03	-3.292E-04	-4.226E-03	 2.728E-03	 5.698E-02	-4.080E-02	-1.155E-01	-1.012E-01	 5.320E+00	 6.706E-01	 1.812E+03	 3.161E-02	 9.094E-02	 8.765E-03	 6.873E-02	 1.937E-01	-7.232E-01	-2.028E-01	-7.852E-01	 5.804E-01	 1.019E-02	-1.860E+00	 6.242E+00	 5.674E+00	 7.219E-02
   11.7000	 9.526E+00	-5.500E+00	 0.000E+00	 1.826E+02	-3.551E-03	-1.829E-03	-1.891E-03	 1.889E-03	 2.489E-02	-2.925E-02	-1.343E-01	-1.397E-01	 5.092E+00	 6.777E-01	 1.812E+03	 3.258E-02	 9.447E-02	 3.143E-02	 9.484E-02	 1.835E-01	 8.592E-01	-2.933E-01	-2.685E-01	 2.872E-01	-7.225E-02	 3.752E-01	 6.491E+00	 5.722E+00	 2.186E-02
   11.7500	 9.526E+00	-5.500E+00	 0.000E+00	 2.019E+02	-4.761E-03	 5.522E-04	-4.009E-04	 9.365E-04	 3.219E-03	-1.524E-02	-1.857E-01	-6.943E-02	 5.285E+00	 6.443E-01	 1.812E+03	 3.410E-02	 9.825E-02	 3.557E-02	 5.740E-02	 5.352E-01	 5.758E-01	-2.216E-01	 1.168E-01	 9.444E-02	-1.141E-01	 2.451E+00	 6.141E+00	 5.924E+00	 5.084E-02
   11.8000	 9.526E+00	-5.500E+00	 0.000E+00	 2.211E+02	 2.141E-03	-1.194E-03	 5.920E-04	-7.894E-04	-1.147E-02	 9.363E-03	-8.023E-02	-9.023E-02	 5.061E+00	 5.964E-01	 1.812E+03	 3.577E-02	 1.010E-01	 1.950E-02	 2.891E-02	-4.054E-01	-1.018E+00	 1.248E-01	 4.784E-01	-9.811E-02	 1.323E-01	 4.282E+00	 4.905E+00	 6.309E+00	-4.676E-03
   11.8500	 9.526E+00	-5.500E+00	 0.000E+00	 2.404E+02	 9.384E-03	-6.373E-03	 1.697E-03	-2.141E-03	-2.647E-02	 2.852E-02	 8.044E-02	-1.846E-01	 5.017E+00	 5.518E-01	 1.812E+03	 3.683E-02	 1.025E-01	 2.241E-02	 2.895E-02	-3.533E-01	-1.069E+00	 2.883E-01	 7.944E-01	-3.105E-01	 3.980E-01	 5.685E+00	 3.232E+00	 6.460E+00	-4.639E-02
   11.9000	 9.526E+00	-5.500E+00	 0.000E+00	 2.596E+02	 8.658E-03	-9.107E-03	 1.977E-03	-3.901E-03	-2.979E-02	 5.317E-02	 9.053E-02	-2.412E-01	 5.084E+00	 6.039E-01	 1.812E+03	 3.749E-02	 1.025E-01	 6.413E-03	-2.131E-02	-2.128E-01	-2.530E-01	 1.897E-01	 9.102E-01	-3.273E-01	 3.641E-01	 6.347E+00	 1.141E+00	 6.410E+00	-7.119E-02
   11.9500	 9.526E+00	-5.500E+00	 0.000E+00	 2.788E+02	 2.289E-03	-6.708E-03	 2.683E-03	-5.922E-03	-4.043E-02	 8.161E-02	-6.065E-02	-1.934E-01	 5.102E+00	 5.621E-01	 1.812E+03	 3.746E-02	 1.014E-01	-9.208E-03	-2.980E-02	-4.211E-01	-1.206E+00	 1.273E-01	 9.536E-01	-4.013E-01	 9.690E-02	 6.439E+00	-1.065E+00	 6.318E+00	-9.959E-02
   12.0000	 9.526E+00	-5.500E+00	 0.000E+00	 2.981E+02	-6.678E-04	-3.096E-03	 2.053E-03	-7.133E-03	-3.187E-02	 9.881E-02	-1.296E-01	-1.164E-01	 5.172E+00	 6.556E-01	 1.812E+03	 3.668E-02	 9.835E-02	-1.498E-02	-6.413E-02	 2.318E-01	 1.128E+00	 9.351E-02	 7.914E-01	-2.769E-01	-1.415E-02	 5.684E+00	-3.103E+00	 5.989E+00	-1.054E-01
   12.0500	 9.526E+00	-5.500E+00	 0.000E+00	 3.173E+02	 7.432E-04	-3.519E-03	 1.091E-03	-8.190E-03	-1.742E-02	 1.132E-01	-6.644E-02	-1.436E-01	 5.252E+00	 6.198E-01	 1.812E+03	 3.571E-02	 9.520E-02	-2.593E-02	-8.742E-02	 1.682E-01	-3.558E-01	-2.502E-03	 5.547E-01	-1.487E-01	 5.932E-02	 4.437E+00	-4.909E+00	 5.829E+00	-9.112E-02
   12.1000	 9.526E+00	-5.500E+00	 0.000E+00	 3.366E+02	-9.235E-04	-6.091E-03	-3.188E-04	-7.857E-03	 2.862E-03	 1.083E-01	-8.051E-02	-2.030E-01	 5.308E+00	 6.656E-01	 1.812E+03	 3.456E-02	 9.150E-02	-3.122E-02	-7.119E-02	-6.552E-01	-6.378E-01	-1.445E-01	 1.787E-01	 7.373E-02	 2.156E-02	 2.592E+00	-5.971E+00	 5.749E+00	-7.298E-02
   12.1500	 9.526E+00	-5.500E+00	 0.000E+00	 3.558E+02	-6.616E-03	-6.638E-03	-1.823E-03	-7.460E-03	 2.400E-02	 1.024E-01	-1.908E-01	-2.232E-01	 5.410E+00	 6.546E-01	 1.812E+03	 3.299E-02	 8.870E-02	-2.116E-02	-1.989E-02	 2.950E-01	 1.036E+00	-3.246E-01	-2.539E-01	 3.288E-01	-1.829E-01	 4.604E-01	-6.498E+00	 5.593E+00	-3.787E-02
   12.2000	 9.526E+00	-5.500E+00	 0.000E+00	 1.505E+01	-1.061E-02	-3.627E-03	-3.247E-03	-6.528E-03	 4.390E-02	 8.931E-02	-2.733E-01	-1.655E-01	 5.409E+00	 6.167E-01	 1.812E+03	 3.203E-02	 8.801E-02	-1.508E-02	-3.954E-03	 3.782E-01	 1.054E+00	-4.289E-01	-6.859E-01	 5.520E-01	-3.212E-01	-1.646E+00	-6.213E+00	 5.564E+00	 2.323E-02
   12.2500	 9.526E+00	-5.500E+00	 0.000E+00	 3.429E+01	-8.706E-03	-1.038E-03	-5.438E-03	-4.983E-03	 7.489E-02	 6.760E-02	-2.285E-01	-1.147E-01	 5.385E+00	 6.065E-01	 1.812E+03	 3.169E-02	 8.934E-02	-1.426E-03	 5.345E-02	 1.379E-01	 5.745E-01	-4.348E-01	-1.144E+00	 8.556E-01	-2.270E-01	-3.678E+00	-5.334E+00	 5.605E+00	 3.314E-02
   12.3000	 9.526E+00	-5.500E+00	 0.000E+00	 5.353E+01	-4.050E-03	-1.905E-03	-6.774E-03	-3.200E-03	 9.384E-02	 4.262E-02	-1.324E-01	-1.287E-01	 5.376E+00	 5.691E-01	 1.812E+03	 3.187E-02	 9.192E-02	 1.362E-02	 5.283E-02	 5.983E-01	 1.001E+00	-3.605E-01	-1.453E+00	 9.888E-01	-4.415E-02	-5.208E+00	-3.827E+00	 5.672E+00	 6.016E-02
   12.3500	 9.526E+00	-5.500E+00	 0.000E+00	 7.277E+01	-2.662E-03	-6.342E-03	-8.014E-03	-7.045E-04	 1.108E-01	 6.373E-03	-1.241E-01	-2.594E-01	 5.204E+00	 6.364E-01	 1.812E+03	 3.301E-02	 9.562E-02	 2.302E-02	 6.345E-02	-3.596E-02	-1.583E+00	-2.891E-01	-1.712E+00	 1.147E+00	-1.203E-02	-6.322E+00	-1.900E+00	 5.908E+00	 3.785E-02
   12.4000	 9.526E+00	-5.500E+00	 0.000E+00	 9.202E+01	-4.517E-03	-2.037E-03	-8.044E-03	-4.309E-05	 1.110E-01	-2.080E-03	-1.684E-01	-1.433E-01	 5.150E+00	 6.317E-01	 1.812E+03	 3.455E-02	 9.841E-02	 3.333E-02	 5.884E-02	-5.804E-01	-8.332E-01	-3.322E-01	-1.760E+00	 1.146E+00	-9.308E-02	-6.551E+00	 1.842E-01	 6.061E+00	 2.652E-02
   12.4500	 9.526E+00	-5.500E+00	 0.000E+00	 1.113E+02	-5.934E-03	 7.346E-03	-7.627E-03	 1.327E-03	 1.048E-01	-2.057E-02	-2.085E-01	 6.831E-02	 5.125E+00	 5.827E-01	 1.812E+03	 3.564E-02	 1.002E-01	 2.256E-02	 3.778E-02	 3.711E-01	 8.296E-01	-3.364E-01	-1.671E+00	 1.097E+00	-1.513E-01	-6.072E+00	 2.385E+00	 6.199E+00	-1.438E-02
   12.5000	 9.526E+00	-5.500E+00	 0.000E+00	 1.305E+02	-3.954E-03	 1.014E-02	-6.861E-03	 1.752E-03	 9.393E-02	-2.709E-02	-1.743E-01	 1.010E-01	 5.095E+00	 6.071E-01	 1.812E+03	 3.672E-02	 1.017E-01	 1.470E-02	 4.726E-03	-2.121E-01	-9.156E-01	-2.602E-01	-1.451E+00	 9.711E-01	-8.042E-02	-4.935E+00	 4.199E+00	 6.415E+00	-3.485E-02
   12.5500	 9.526E+00	-5.500E+00	 0.000E+00	 1.497E+02	-1.233E-03	 4.872E-03	-5.359E-03	 2.493E-03	 7.280E-02	-3.796E-02	-1.220E-01	-1.869E-02	 5.083E+00	 5.927E-01	 1.812E+03	 3.723E-02	 1.015E-01	 4.387E-03	-6.051E-03	-3.192E-01	 1.075E-01	-1.624E-01	-1.077E+00	 7.345E-01	 1.299E-02	-3.202E+00	 5.627E+00	 6.341E+00	-9.246E-02
   12.6000	 9.526E+00	-5.500E+00	 0.000E+00	 1.690E+02	-1.369E-03	-7.825E-05	-3.677E-03	 2.492E-03	 4.918E-02	-3.767E-02	-1.240E-01	-1.038E-01	 5.124E+00	 5.964E-01	 1.812E+03	 3.704E-02	 1.004E-01	-1.116E-02	-5.432E-02	-1.124E-01	-1.083E+00	-1.798E-01	-6.427E-01	 5.113E-01	 3.625E-03	-1.196E+00	 6.401E+00	 6.220E+00	-8.533E-02
   12.6500	 9.526E+00	-5.500E+00	 0.000E+00	 1.882E+02	-4.947E-03	-2.852E-05	-1.133E-03	 1.495E-03	 1.297E-02	-2.337E-02	-2.101E-01	-9.181E-02	 5.218E+00	 5.789E-01	 1.812E+03	 3.653E-02	 9.794E-02	-1.383E-02	-4.415E-02	-5.332E-01	-1.484E+00	-1.522E-01	-1.366E-01	 1.584E-01	-1.639E-01	 1.052E+00	 6.483E+00	 6.058E+00	-1.287E-01
   12.7000	 9.526E+00	-5.500E+00	 0.000E+00	 2.075E+02	-2.798E-03	 7.624E-04	-2.733E-04	 5.041E-04	 1.756E-03	-9.021E-03	-1.349E-01	-6.005E-02	 5.359E+00	 6.207E-01	 1.812E+03	 3.561E-02	 9.443E-02	-1.485E-02	-6.073E-02	-4.841E-02	 1.080E+00	-1.944E-01	 2.099E-01	 7.295E-02	-2.803E-02	 3.024E+00	 5.836E+00	 5.731E+00	-8.213E-02
   12.7500	 9.526E+00	-5.500E+00	 0.000E+00	 2.267E+02	 5.202E-03	-3.507E-03	 1.021E-03	-1.266E-03	-1.667E-02	 1.602E-02	 1.101E-02	-1.366E-01	 5.359E+00	 6.377E-01	 1.812E+03	 3.425E-02	 9.118E-02	-3.414E-02	-6.721E-02	 4.214E-01	 1.357E+00	 8.880E-02	 5.899E-01	-1.877E-01	 2.545E-01	 4.750E+00	 4.426E+00	 5.682E+00	-6.299E-02
   12.8000	 9.526E+00	-5.500E+00	 0.000E+00	 2.460E+02	 9.498E-03	-9.262E-03	 1.722E-03	-2.414E-03	-2.703E-02	 3.231E-02	 7.437E-02	-2.421E-01	 5.274E+00	 6.149E-01	 1.812E+03	 3.305E-02	 8.956E-02	-2.104E-02	-2.062E-02	-6.545E-02	-3.048E-01	 3.044E-01	 8.270E-01	-3.077E-01	 3.919E-01	 5.913E+00	 2.662E+00	 5.735E+00	-1.591E-02
   12.8500	 9.526E+00	-5.500E+00	 0.000E+00	 2.652E+02	 5.981E-03	-1.022E-02	 2.276E-03	-4.476E-03	-3.445E-02	 6.144E-02	 2.095E-02	-2.552E-01	 5.370E+00	 6.796E-01	 1.812E+03	 3.217E-02	 8.896E-02	-1.160E-02	 1.278E-02	 2.316E-01	 1.418E+00	 1.597E-01	 9.336E-01	-3.619E-01	 2.481E-01	 6.407E+00	 5.147E-01	 5.599E+00	 9.785E-03
   12.9000	 9.526E+00	-5.500E+00	 0.000E+00	 2.844E+02	-9.364E-06	-6.327E-03	 2.660E-03	-6.194E-03	-3.979E-02	 8.552E-02	-9.298E-02	-1.829E-01	 5.417E+00	 5.958E-01	 1.812E+03	 3.184E-02	 9.077E-02	-2.599E-03	 3.679E-02	 1.951E-01	-7.469E-01	 1.215E-02	 9.251E-01	-3.761E-01	 1.568E-02	 6.300E+00	-1.627E+00	 5.666E+00	 5.875E-02
   12.9500	 9.526E+00	-5.500E+00	 0.000E+00	 3.037E+02	-1.554E-03	-2.724E-03	 1.828E-03	-7.460E-03	-2.835E-02	 1.033E-01	-1.325E-01	-1.115E-01	 5.391E+00	 6.250E-01	 1.812E+03	 3.225E-02	 9.297E-02	 2.051E-02	 7.395E-02	 1.720E-01	 5.821E-01	 8.482E-03	 7.311E-01	-2.362E-01	-4.402E-02	 5.377E+00	-3.659E+00	 5.678E+00	 2.793E-02
   13.0000	 9.526E+00	-5.500E+00	 0.000E+00	 3.229E+02	 9.904E-05	-3.473E-03	 8.982E-04	-8.249E-03	-1.473E-02	 1.140E-01	-7.954E-02	-1.416E-01	 5.241E+00	 6.023E-01	 1.812E+03	 3.330E-02	 9.578E-02	 2.852E-02	 4.604E-02	 5.227E-01	 8.252E-01	-2.702E-02	 4.776E-01	-1.191E-01	 4.351E-02	 4.001E+00	-5.256E+00	 5.768E+00	 5.837E-02
   13.0500	 9.526E+00	-5.500E+00	 0.000E+00	 3.422E+02	-1.979E-03	-5.776E-03	-8.545E-04	-7.762E-03	 1.030E-02	 1.068E-01	-1.046E-01	-2.019E-01	 5.181E+00	 6.123E-01	 1.812E+03	 3.461E-02	 9.806E-02	 1.596E-02	 2.734E-02	-8.129E-02	-2.313E-01	-1.574E-01	 5.070E-02	 1.620E-01	-1.606E-02	 1.994E+00	-6.188E+00	 6.111E+00	 1.629E-02
   13.1000	 9.526E+00	-5.500E+00	 0.000E+00	 1.404E+00	-6.855E-03	-5.313E-03	-2.190E-03	-7.335E-03	 2.922E-02	 1.006E-01	-1.932E-01	-2.017E-01	 5.119E+00	 6.097E-01	 1.812E+03	 3.571E-02	 1.000E-01	 2.354E-02	 3.860E-02	-3.524E-01	-1.215E+00	-3.166E-01	-3.714E-01	 3.744E-01	-1.913E-01	-1.531E-01	-6.530E+00	 6.336E+00	-1.941E-02
   13.1500	 9.526E+00	-5.500E+00	 0.000E+00	 2.065E+01	-9.002E-03	-2.233E-03	-4.024E-03	-6.112E-03	 5.494E-02	 8.342E-02	-2.374E-01	-1.400E-01	 5.100E+00	 6.136E-01	 1.812E+03	 3.658E-02	 1.008E-01	 1.486E-02	 6.931E-03	-1.008E-01	 4.980E-02	-3.897E-01	-8.362E-01	 6.558E-01	-2.544E-01	-2.293E+00	-6.023E+00	 6.308E+00	-4.833E-02
   13.2000	 9.526E+00	-5.500E+00	 0.000E+00	 3.989E+01	-6.452E-03	-8.055E-04	-5.991E-03	-4.527E-03	 8.256E-02	 6.119E-02	-1.889E-01	-1.103E-01	 5.051E+00	 6.343E-01	 1.812E+03	 3.700E-02	 1.010E-01	-2.373E-04	-8.729E-03	-3.413E-01	-1.204E+00	-3.465E-01	-1.259E+00	 9.096E-01	-1.456E-01	-4.227E+00	-4.974E+00	 6.291E+00	-7.828E-02
   13.2500	 9.526E+00	-5.500E+00	 0.000E+00	 5.913E+01	-2.993E-03	-2.559E-03	-7.200E-03	-2.405E-03	 9.974E-02	 3.233E-02	-1.154E-01	-1.069E-01	 5.164E+00	 5.924E-01	 1.812E+03	 3.680E-02	 9.938E-02	-2.892E-03	-3.482E-02	 1.208E-01	 9.404E-01	-3.170E-01	-1.542E+00	 1.039E+00	-1.033E-02	-5.610E+00	-3.268E+00	 6.006E+00	-1.058E-01
   13.3000	 9.526E+00	-5.500E+00	 0.000E+00	 7.837E+01	-3.431E-03	-5.572E-03	-8.225E-03	-4.515E-04	 1.137E-01	 3.348E-03	-1.417E-01	-2.239E-01	 5.233E+00	 6.355E-01	 1.812E+03	 3.630E-02	 9.721E-02	-1.586E-02	-7.015E-02	 2.063E-01	-2.824E-01	-3.145E-01	-1.758E+00	 1.182E+00	-4.537E-02	-6.496E+00	-1.276E+00	 5.936E+00	-9.139E-02
   13.3500	 9.526E+00	-5.500E+00	 0.000E+00	 9.761E+01	-5.900E-03	 5.745E-04	-7.850E-03	 2.998E-04	 1.081E-01	-7.442E-03	-2.010E-01	-1.137E-01	 5.293E+00	 6.388E-01	 1.812E+03	 3.551E-02	 9.407E-02	-2.764E-02	-6.758E-02	-6.766E-01	-7.362E-01	-3.690E-01	-1.740E+00	 1.124E+00	-1.450E-01	-6.449E+00	 8.657E-01	 5.907E+00	-8.670E-02
   13.4000	 9.526E+00	-5.500E+00	 0.000E+00	 1.169E+02	-6.379E-03	 9.003E-03	-7.447E-03	 1.578E-03	 1.022E-01	-2.437E-02	-2.195E-01	 8.941E-02	 5.328E+00	 6.077E-01	 1.812E+03	 3.406E-02	 9.124E-02	-2.194E-02	-3.021E-02	 1.715E-01	 6.429E-01	-3.524E-01	-1.624E+00	 1.076E+00	-1.676E-01	-5.805E+00	 2.961E+00	 5.759E+00	-5.696E-02
   13.4500	 9.526E+00	-5.500E+00	 0.000E+00	 1.361E+02	-3.468E-03	 9.138E-03	-6.441E-03	 1.834E-03	 8.808E-02	-2.775E-02	-1.625E-01	 1.008E-01	 5.331E+00	 6.137E-01	 1.812E+03	 3.298E-02	 8.991E-02	-1.936E-02	-2.077E-02	 2.263E-01	 6.158E-01	-2.662E-01	-1.350E+00	 9.057E-01	-6.291E-02	-4.466E+00	 4.621E+00	 5.685E+00	 1.277E-05
   13.5000	 9.526E+00	-5.500E+00	 0.000E+00	 1.553E+02	-1.108E-03	 2.190E-03	-4.898E-03	 2.695E-03	 6.643E-02	-4.078E-02	-1.156E-01	-6.963E-02	 5.344E+00	 6.524E-01	 1.812E+03	 3.227E-02	 9.013E-02	-9.526E-03	 3.223E-02	 1.410E-01	 5.832E-01	-2.017E-01	-9.609E-01	 6.704E-01	 1.607E-02	-2.669E+00	 5.910E+00	 5.645E+00	 1.440E-02
   13.5500	 9.526E+00	-5.500E+00	 0.000E+00	 1.746E+02	-2.025E-03	-1.868E-03	-3.067E-03	 2.319E-03	 4.089E-02	-3.554E-02	-1.253E-01	-1.498E-01	 5.144E+00	 6.770E-01	 1.812E+03	 3.200E-02	 9.146E-02	 3.613E-03	 2.752E-02	 6.044E-01	 1.294E+00	-1.354E-01	-4.955E-01	 4.642E-01	 2.942E-02	-5.785E-01	 6.432E+00	 5.632E+00	 4.128E-02
   13.6000	 9.526E+00	-5.500E+00	 0.000E+00	 1.938E+02	-5.925E-03	-3.952E-04	-6.841E-04	 1.322E-03	 6.094E-03	-2.070E-02	-2.510E-01	-8.957E-02	 5.223E+00	 6.375E-01	 1.812E+03	 3.265E-02	 9.403E-02	 1.399E-02	 4.019E-02	 8.261E-02	-1.285E+00	-1.222E-01	-1.994E-02	 1.153E-01	-1.916E-01	 1.626E+00	 6.399E+00	 5.812E+00	 4.048E-02
   13.6500	 9.526E+00	-5.500E+00	 0.000E+00	 2.131E+02	-1.344E-03	-2.541E-04	 1.898E-06	 6.349E-05	-2.885E-03	-2.594E-03	-1.366E-01	-7.073E-02	 5.251E+00	 6.311E-01	 1.812E+03	 3.382E-02	 9.617E-02	 2.539E-02	 4.998E-02	-5.773E-01	-8.761E-01	-2.813E-02	 3.061E-01	 1.412E-02	-3.932E-03	 3.528E+00	 5.506E+00	 5.960E+00	 3.499E-02
   13.7000	 9.526E+00	-5.500E+00	 0.000E+00	 2.323E+02	 7.380E-03	-4.662E-03	 1.406E-03	-1.654E-03	-2.167E-02	 2.153E-02	 6.945E-02	-1.569E-01	 5.243E+00	 6.248E-01	 1.812E+03	 3.469E-02	 9.789E-02	 2.202E-02	 4.427E-02	 4.353E-01	 9.432E-01	 1.139E-01	 6.913E-01	-2.572E-01	 3.469E-01	 5.169E+00	 3.977E+00	 6.065E+00	 2.583E-03
   13.7500	 9.526E+00	-5.500E+00	 0.000E+00	 2.516E+02	 9.523E-03	-9.004E-03	 1.784E-03	-2.958E-03	-2.742E-02	 3.977E-02	 9.378E-02	-2.443E-01	 5.124E+00	 5.951E-01	 1.812E+03	 3.579E-02	 9.979E-02	 1.685E-02	 1.628E-02	-1.422E-01	-6.639E-01	 2.524E-01	 8.640E-01	-3.070E-01	 3.965E-01	 6.130E+00	 2.070E+00	 6.290E+00	-1.181E-02
   13.8000	 9.526E+00	-5.500E+00	 0.000E+00	 2.708E+02	 4.329E-03	-8.128E-03	 2.543E-03	-5.204E-03	-3.874E-02	 7.163E-02	-3.233E-02	-2.167E-01	 5.077E+00	 6.019E-01	 1.812E+03	 3.651E-02	 1.004E-01	 1.078E-02	 1.675E-02	-2.491E-01	 1.172E-01	 2.144E-01	 9.570E-01	-3.971E-01	 1.694E-01	 6.476E+00	-1.532E-01	 6.275E+00	-6.941E-02
   13.8500	 9.526E+00	-5.500E+00	 0.000E+00	 2.900E+02	-3.727E-05	-4.172E-03	 2.442E-03	-6.632E-03	-3.705E-02	 9.175E-02	-1.059E-01	-1.380E-01	 5.081E+00	 5.814E-01	 1.812E+03	 3.668E-02	 1.003E-01	-2.106E-03	-3.300E-02	 5.644E-02	-5.868E-01	 8.193E-02	 8.805E-01	-3.419E-01	 9.070E-03	 6.098E+00	-2.307E+00	 6.114E+00	-8.135E-02
   13.9000	 9.526E+00	-5.500E+00	 0.000E+00	 3.093E+02	 2.197E-04	-2.632E-03	 1.444E-03	-7.855E-03	-2.257E-02	 1.087E-01	-8.325E-02	-1.191E-01	 5.175E+00	 5.878E-01	 1.812E+03	 3.665E-02	 9.901E-02	-6.713E-03	-3.017E-02	-5.870E-01	-1.718E+00	 1.588E-02	 6.608E-01	-1.901E-01	 3.595E-02	 5.020E+00	-4.257E+00	 6.119E+00	-1.234E-01
   13.9500	 9.526E+00	-5.500E+00	 0.000E+00	 3.285E+02	 5.518E-04	-4.641E-03	 4.297E-04	-8.144E-03	-7.925E-03	 1.125E-01	-6.224E-02	-1.666E-01	 5.186E+00	 6.530E-01	 1.812E+03	 3.614E-02	 9.631E-02	-8.380E-03	-5.020E-02	-3.060E-01	 1.595E-01	-5.210E-02	 3.604E-01	-5.450E-02	 6.578E-02	 3.445E+00	-5.598E+00	 5.882E+00	-8.218E-02
   14.0000	 9.526E+00	-5.500E+00	 0.000E+00	 3.478E+02	-3.777E-03	-6.645E-03	-1.351E-03	-7.642E-03	 1.718E-02	 1.051E-01	-1.429E-01	-2.201E-01	 5.298E+00	 6.667E-01	 1.812E+03	 3.500E-02	 9.319E-02	-2.808E-02	-5.796E-02	 4.452E-01	 1.562E+00	-2.106E-01	-8.745E-02	 2.456E-01	-8.323E-02	 1.337E+00	-6.357E+00	 5.789E+00	-7.615E-02
   14.0500	 9.526E+00	-5.500E+00	 0.000E+00	 7.002E+00	-9.134E-03	-5.066E-03	-2.523E-03	-7.037E-03	 3.378E-02	 9.641E-02	-2.419E-01	-1.957E-01	 5.324E+00	 6.414E-01	 1.812E+03	 3.391E-02	 9.146E-02	-2.284E-02	-3.421E-02	-1.186E-01	-2.492E-01	-3.815E-01	-4.959E-01	 4.347E-01	-2.750E-01	-7.769E-01	-6.438E+00	 5.836E+00	-3.549E-02
   14.1000	 9.526E+00	-5.500E+00	 0.000E+00	 2.624E+01	-9.764E-03	-1.835E-03	-4.621E-03	-5.632E-03	 6.351E-02	 7.667E-02	-2.454E-01	-1.323E-01	 5.401E+00	 6.188E-01	 1.812E+03	 3.294E-02	 9.034E-02	-1.456E-02	 7.191E-04	 1.687E-01	 1.094E+00	-4.635E-01	-9.698E-01	 7.509E-01	-2.715E-01	-2.877E+00	-5.750E+00	 5.689E+00	-1.140E-02
   14.1500	 9.526E+00	-5.500E+00	 0.000E+00	 4.549E+01	-6.084E-03	-1.246E-03	-6.272E-03	-4.027E-03	 8.665E-02	 5.415E-02	-1.766E-01	-1.191E-01	 5.302E+00	 6.041E-01	 1.812E+03	 3.231E-02	 9.115E-02	-9.998E-03	 1.362E-02	 2.494E-01	-4.961E-01	-3.806E-01	-1.339E+00	 9.402E-01	-1.244E-01	-4.646E+00	-4.552E+00	 5.676E+00	 3.894E-02
   14.2000	 9.526E+00	-5.500E+00	 0.000E+00	 6.473E+01	-3.007E-03	-4.278E-03	-7.507E-03	-1.589E-03	 1.039E-01	 2.015E-02	-1.194E-01	-1.674E-01	 5.313E+00	 5.952E-01	 1.812E+03	 3.238E-02	 9.245E-02	 1.195E-02	 5.404E-02	 3.756E-02	 2.862E-01	-3.232E-01	-1.613E+00	 1.079E+00	-1.828E-02	-5.923E+00	-2.717E+00	 5.644E+00	 1.072E-02
   14.2500	 9.526E+00	-5.500E+00	 0.000E+00	 8.397E+01	-3.819E-03	-4.246E-03	-8.234E-03	-3.531E-04	 1.138E-01	 2.782E-03	-1.484E-01	-1.666E-01	 5.286E+00	 6.009E-01	 1.812E+03	 3.302E-02	 9.431E-02	 2.205E-02	 3.470E-02	 5.044E-01	 9.879E-01	-3.391E-01	-1.768E+00	 1.181E+00	-6.005E-02	-6.558E+00	-7.236E-01	 5.686E+00	 5.577E-02