
Predictions were generated on 02-Apr-2013 at 13:21:21 using FAST (v8.00.00a-bjj, 31-March-2013), compiled using SINGLE precision
 linked with  NWTC Subroutine Library (v2.00.00c-bjj, 5-Feb-2013); ElastoDyn (v1.00.00a-bjj, 31-March-2013); ServoDyn (v1.00.00, 31-March-2013); AeroDyn (v13.00.02a-bjj, 02-Apr-2013)

Description from the FAST input file: FAST certification Test #08: AOC 15/50 with many DOFs with fixed yaw error and steady wind. Many parameters are pure fiction.

Time      	WindVxi   	WindVyi   	WindVzi   	LSSGagPxa 	TipDxb1   	TipDxb2   	TipDyb1   	TipDyb2   	RollDefl1 	RollDefl2 	PtchDefl1 	PtchDefl2 	Spn1ALxb1 	Spn1ALyb1 	HSShftV   	TTDspRoll 	TTDspPtch 	YawBrRVxp 	YawBrRVyp 	YawBrRAxp 	YawBrRAyp 	RootFxb1  	RootFyb1  	Spn2MLxb1 	Spn2MLyb1 	LSShftFya 	LSShftFza 	YawBrFxn  	YawBrFyn  
(s)       	(m/s)     	(m/s)     	(m/s)     	(deg)     	(m)       	(m)       	(m)       	(m)       	(deg)     	(deg)     	(deg)     	(deg)     	(m/s^2)   	(m/s^2)   	(rpm)     	(deg)     	(deg)     	(deg/s)   	(deg/s)   	(deg/s^2) 	(deg/s^2) 	(kN)      	(kN)      	(kN·m)    	(kN·m)    	(kN)      	(kN)      	(kN)      	(kN)      
   10.0000	 9.526E+00	-5.500E+00	 0.000E+00	 2.484E+02	 1.045E-02	-7.756E-03	 1.763E-03	-2.738E-03	-2.750E-02	 3.672E-02	 9.766E-02	-2.185E-01	 4.950E+00	 5.404E-01	 1.812E+03	 3.863E-02	 1.052E-01	-2.429E-03	-4.921E-02	-5.173E-01	-1.474E+00	 3.404E-01	 8.516E-01	-3.174E-01	 4.278E-01	 6.048E+00	 2.392E+00	 6.640E+00	-9.190E-02
   10.0500	 9.526E+00	-5.500E+00	 0.000E+00	 2.676E+02	 6.408E-03	-8.622E-03	 2.328E-03	-4.870E-03	-3.544E-02	 6.694E-02	 1.928E-02	-2.259E-01	 5.046E+00	 6.063E-01	 1.812E+03	 3.806E-02	 1.017E-01	-1.935E-02	-7.742E-02	-3.175E-01	 1.902E-01	 2.393E-01	 9.419E-01	-3.766E-01	 2.544E-01	 6.455E+00	 1.892E-01	 6.359E+00	-1.281E-01
   10.1000	 9.526E+00	-5.500E+00	 0.000E+00	 2.869E+02	 7.456E-04	-5.586E-03	 2.534E-03	-6.429E-03	-3.812E-02	 8.885E-02	-8.246E-02	-1.675E-01	 5.198E+00	 5.807E-01	 1.812E+03	 3.666E-02	 9.757E-02	-3.643E-02	-1.052E-01	-1.836E-01	-1.217E+00	 7.289E-02	 9.046E-01	-3.631E-01	 4.189E-02	 6.221E+00	-1.945E+00	 6.069E+00	-1.024E-01
   10.1500	 9.526E+00	-5.500E+00	 0.000E+00	 3.061E+02	-5.048E-04	-3.422E-03	 1.607E-03	-7.591E-03	-2.515E-02	 1.051E-01	-1.086E-01	-1.280E-01	 5.330E+00	 6.445E-01	 1.812E+03	 3.497E-02	 9.256E-02	-3.091E-02	-7.645E-02	-2.351E-01	 8.004E-02	 2.941E-02	 6.931E-01	-2.101E-01	 1.990E-03	 5.202E+00	-3.945E+00	 5.678E+00	-1.295E-01
   10.2000	 9.526E+00	-5.500E+00	 0.000E+00	 3.254E+02	 2.407E-04	-4.876E-03	 6.791E-04	-8.194E-03	-1.155E-02	 1.133E-01	-7.291E-02	-1.692E-01	 5.425E+00	 6.783E-01	 1.812E+03	 3.330E-02	 8.809E-02	-2.562E-02	-7.610E-02	 4.764E-01	 1.849E+00	-4.938E-02	 4.211E-01	-9.074E-02	 4.764E-02	 3.741E+00	-5.410E+00	 5.336E+00	-4.712E-02
   10.2500	 9.526E+00	-5.500E+00	 0.000E+00	 3.446E+02	-3.482E-03	-6.905E-03	-1.047E-03	-7.651E-03	 1.301E-02	 1.052E-01	-1.337E-01	-2.236E-01	 5.498E+00	 6.706E-01	 1.812E+03	 3.189E-02	 8.530E-02	-3.348E-02	-4.730E-02	 3.409E-01	 1.289E+00	-2.230E-01	-1.066E-02	 2.005E-01	-7.228E-02	 1.702E+00	-6.249E+00	 5.360E+00	-2.054E-02
   10.3000	 9.526E+00	-5.500E+00	 0.000E+00	 3.853E+00	-9.145E-03	-5.685E-03	-2.256E-03	-7.173E-03	 3.017E-02	 9.836E-02	-2.369E-01	-2.061E-01	 5.495E+00	 6.320E-01	 1.812E+03	 3.102E-02	 8.532E-02	-6.264E-03	 3.141E-02	 1.099E-01	 1.448E-01	-4.097E-01	-4.203E-01	 3.993E-01	-2.736E-01	-4.118E-01	-6.481E+00	 5.473E+00	 2.548E-02
   10.3500	 9.526E+00	-5.500E+00	 0.000E+00	 2.310E+01	-1.052E-02	-2.280E-03	-4.184E-03	-5.900E-03	 5.729E-02	 8.048E-02	-2.632E-01	-1.393E-01	 5.447E+00	 5.964E-01	 1.812E+03	 3.101E-02	 8.747E-02	 9.362E-03	 6.868E-02	 4.019E-01	 1.436E+00	-4.718E-01	-8.843E-01	 6.921E-01	-3.036E-01	-2.518E+00	-5.904E+00	 5.506E+00	 5.650E-02
   10.4000	 9.526E+00	-5.500E+00	 0.000E+00	 4.234E+01	-6.618E-03	-1.015E-03	-6.079E-03	-4.306E-03	 8.387E-02	 5.810E-02	-1.897E-01	-1.139E-01	 5.242E+00	 5.940E-01	 1.812E+03	 3.184E-02	 9.228E-02	 2.101E-02	 1.026E-01	 1.238E-01	-7.854E-01	-3.756E-01	-1.289E+00	 9.212E-01	-1.463E-01	-4.392E+00	-4.811E+00	 5.758E+00	 7.583E-02
   10.4500	 9.526E+00	-5.500E+00	 0.000E+00	 6.158E+01	-2.388E-03	-3.196E-03	-7.336E-03	-2.098E-03	 1.016E-01	 2.763E-02	-1.035E-01	-1.338E-01	 5.190E+00	 5.604E-01	 1.812E+03	 3.330E-02	 9.703E-02	 4.062E-02	 1.109E-01	 2.713E-01	 8.607E-01	-3.072E-01	-1.568E+00	 1.053E+00	 1.400E-02	-5.738E+00	-3.041E+00	 5.868E+00	 3.268E-02
   10.5000	 9.526E+00	-5.500E+00	 0.000E+00	 8.082E+01	-2.749E-03	-5.497E-03	-8.288E-03	-3.327E-04	 1.146E-01	 2.071E-03	-1.287E-01	-2.073E-01	 5.092E+00	 6.061E-01	 1.812E+03	 3.522E-02	 1.017E-01	 3.841E-02	 6.116E-02	 3.894E-01	-2.512E-01	-2.892E-01	-1.765E+00	 1.184E+00	-2.099E-02	-6.544E+00	-1.048E+00	 6.141E+00	 3.405E-02
   10.5500	 9.526E+00	-5.500E+00	 0.000E+00	 1.001E+02	-5.272E-03	 1.386E-03	-7.834E-03	 5.011E-04	 1.078E-01	-1.024E-02	-1.916E-01	-9.692E-02	 5.019E+00	 6.224E-01	 1.812E+03	 3.703E-02	 1.042E-01	 2.085E-02	 1.991E-02	-6.649E-01	-1.447E+00	-3.275E-01	-1.730E+00	 1.118E+00	-1.235E-01	-6.416E+00	 1.137E+00	 6.488E+00	-2.743E-02
   10.6000	 9.526E+00	-5.500E+00	 0.000E+00	 1.193E+02	-5.496E-03	 9.649E-03	-7.419E-03	 1.676E-03	 1.018E-01	-2.603E-02	-2.050E-01	 9.149E-02	 5.017E+00	 6.123E-01	 1.812E+03	 3.790E-02	 1.048E-01	 1.597E-02	 5.114E-03	-3.999E-01	-1.194E+00	-2.998E-01	-1.605E+00	 1.065E+00	-1.374E-01	-5.699E+00	 3.222E+00	 6.582E+00	-7.205E-02
   10.6500	 9.526E+00	-5.500E+00	 0.000E+00	 1.385E+02	-2.694E-03	 9.417E-03	-6.283E-03	 1.914E-03	 8.583E-02	-2.895E-02	-1.493E-01	 1.035E-01	 5.043E+00	 5.778E-01	 1.812E+03	 3.813E-02	 1.034E-01	-3.191E-03	-5.020E-02	-2.077E-01	-3.391E-01	-2.191E-01	-1.304E+00	 8.771E-01	-3.679E-02	-4.252E+00	 4.850E+00	 6.467E+00	-8.931E-02
   10.7000	 9.526E+00	-5.500E+00	 0.000E+00	 1.578E+02	-9.431E-04	 2.768E-03	-4.684E-03	 2.658E-03	 6.337E-02	-4.017E-02	-1.139E-01	-5.476E-02	 5.124E+00	 5.936E-01	 1.812E+03	 3.757E-02	 1.006E-01	-2.069E-02	-6.068E-02	-3.943E-01	-7.269E-01	-1.773E-01	-9.023E-01	 6.414E-01	 2.088E-02	-2.395E+00	 6.061E+00	 6.271E+00	-1.189E-01
   10.7500	 9.526E+00	-5.500E+00	 0.000E+00	 1.770E+02	-2.163E-03	-6.954E-04	-2.746E-03	 2.116E-03	 3.678E-02	-3.272E-02	-1.122E-01	-1.286E-01	 5.119E+00	 6.206E-01	 1.812E+03	 3.623E-02	 9.638E-02	-2.699E-02	-9.225E-02	 2.132E-01	 1.094E+00	-2.246E-01	-4.295E-01	 4.047E-01	-3.123E-02	-2.505E-01	 6.465E+00	 5.888E+00	-1.196E-01
   10.8000	 9.526E+00	-5.500E+00	 0.000E+00	 1.963E+02	-5.834E-03	 4.839E-04	-5.007E-04	 1.112E-03	 3.722E-03	-1.774E-02	-2.413E-01	-7.257E-02	 5.285E+00	 5.964E-01	 1.812E+03	 3.482E-02	 9.241E-02	-3.305E-02	-9.435E-02	 1.089E-01	-6.586E-01	-1.419E-01	 3.443E-02	 9.448E-02	-1.825E-01	 1.927E+00	 6.318E+00	 5.703E+00	-8.994E-02
   10.8500	 9.526E+00	-5.500E+00	 0.000E+00	 2.155E+02	-4.594E-04	-7.839E-04	 1.467E-04	-1.850E-04	-5.021E-03	 9.656E-04	-1.232E-01	-7.839E-02	 5.350E+00	 6.319E-01	 1.812E+03	 3.347E-02	 8.849E-02	-2.951E-02	-6.101E-02	-5.393E-01	-1.528E-01	 1.968E-03	 3.567E-01	-1.006E-02	 3.614E-02	 3.771E+00	 5.311E+00	 5.543E+00	-5.567E-02
   10.9000	 9.526E+00	-5.500E+00	 0.000E+00	 2.348E+02	 8.073E-03	-6.477E-03	 1.510E-03	-1.777E-03	-2.315E-02	 2.334E-02	 8.193E-02	-1.888E-01	 5.468E+00	 6.638E-01	 1.812E+03	 3.192E-02	 8.613E-02	-1.965E-02	-9.507E-03	 5.579E-01	 1.696E+00	 1.251E-01	 7.232E-01	-2.775E-01	 3.692E-01	 5.321E+00	 3.740E+00	 5.410E+00	-1.698E-02
   10.9500	 9.526E+00	-5.500E+00	 0.000E+00	 2.540E+02	 8.957E-03	-1.079E-02	 1.824E-03	-3.105E-03	-2.778E-02	 4.189E-02	 9.061E-02	-2.767E-01	 5.441E+00	 6.763E-01	 1.812E+03	 3.129E-02	 8.667E-02	-6.591E-03	 2.317E-02	 3.650E-01	 7.399E-01	 1.897E-01	 8.721E-01	-3.066E-01	 3.779E-01	 6.176E+00	 1.804E+00	 5.503E+00	 4.409E-02
   11.0000	 9.526E+00	-5.500E+00	 0.000E+00	 2.732E+02	 2.636E-03	-8.928E-03	 2.643E-03	-5.335E-03	-4.010E-02	 7.347E-02	-6.284E-02	-2.321E-01	 5.376E+00	 6.536E-01	 1.812E+03	 3.139E-02	 8.920E-02	 9.656E-03	 8.269E-02	 2.589E-01	 1.068E+00	 1.406E-01	 9.570E-01	-3.988E-01	 1.077E-01	 6.456E+00	-3.986E-01	 5.588E+00	 4.545E-02
   11.0500	 9.526E+00	-5.500E+00	 0.000E+00	 2.925E+02	-1.551E-03	-4.052E-03	 2.426E-03	-6.730E-03	-3.693E-02	 9.318E-02	-1.391E-01	-1.338E-01	 5.322E+00	 6.095E-01	 1.812E+03	 3.214E-02	 9.334E-02	 2.214E-02	 7.366E-02	 5.157E-01	 3.142E-01	 3.669E-02	 8.606E-01	-3.271E-01	-4.593E-02	 5.989E+00	-2.504E+00	 5.723E+00	 6.741E-02
   11.1000	 9.526E+00	-5.500E+00	 0.000E+00	 3.117E+02	-3.202E-04	-2.302E-03	 1.386E-03	-7.959E-03	-2.168E-02	 1.101E-01	-9.138E-02	-1.147E-01	 5.245E+00	 5.519E-01	 1.812E+03	 3.374E-02	 9.797E-02	 3.271E-02	 8.614E-02	-1.962E-01	-1.742E+00	-1.285E-02	 6.354E-01	-1.787E-01	 2.068E-02	 4.875E+00	-4.436E+00	 6.052E+00	 2.707E-02
   11.1500	 9.526E+00	-5.500E+00	 0.000E+00	 3.310E+02	 4.879E-04	-4.223E-03	 2.466E-04	-8.117E-03	-5.272E-03	 1.121E-01	-6.040E-02	-1.607E-01	 5.094E+00	 5.951E-01	 1.812E+03	 3.556E-02	 1.013E-01	 3.866E-02	 6.233E-02	-4.733E-01	-7.285E-01	-5.620E-02	 3.156E-01	-2.672E-02	 6.592E-02	 3.223E+00	-5.725E+00	 6.198E+00	 1.490E-02
   11.2000	 9.526E+00	-5.500E+00	 0.000E+00	 3.502E+02	-3.427E-03	-5.938E-03	-1.573E-03	-7.632E-03	 2.031E-02	 1.049E-01	-1.360E-01	-2.087E-01	 5.061E+00	 6.114E-01	 1.812E+03	 3.678E-02	 1.030E-01	 2.010E-02	 2.324E-02	 2.507E-01	 4.768E-01	-1.851E-01	-1.395E-01	 2.728E-01	-7.043E-02	 1.079E+00	-6.431E+00	 6.358E+00	-3.524E-02
   11.2500	 9.526E+00	-5.500E+00	 0.000E+00	 9.452E+00	-8.101E-03	-4.127E-03	-2.818E-03	-6.945E-03	 3.783E-02	 9.509E-02	-2.259E-01	-1.779E-01	 5.011E+00	 6.176E-01	 1.812E+03	 3.767E-02	 1.036E-01	 8.620E-03	-1.573E-02	-3.696E-01	-1.204E+00	-3.187E-01	-5.588E-01	 4.665E-01	-2.385E-01	-1.061E+00	-6.408E+00	 6.534E+00	-6.108E-02
   11.3000	 9.526E+00	-5.500E+00	 0.000E+00	 2.869E+01	-8.222E-03	-1.285E-03	-4.994E-03	-5.440E-03	 6.868E-02	 7.398E-02	-2.182E-01	-1.216E-01	 5.108E+00	 6.353E-01	 1.812E+03	 3.778E-02	 1.021E-01	-4.380E-03	-3.553E-02	-3.290E-01	 6.672E-02	-3.948E-01	-1.037E+00	 7.910E-01	-2.168E-01	-3.169E+00	-5.638E+00	 6.380E+00	-1.103E-01
   11.3500	 9.526E+00	-5.500E+00	 0.000E+00	 4.794E+01	-4.969E-03	-1.411E-03	-6.512E-03	-3.765E-03	 9.002E-02	 5.044E-02	-1.549E-01	-1.238E-01	 5.119E+00	 6.337E-01	 1.812E+03	 3.709E-02	 9.965E-02	-2.211E-02	-7.660E-02	-1.153E-01	-1.081E+00	-3.420E-01	-1.387E+00	 9.631E-01	-8.540E-02	-4.871E+00	-4.326E+00	 6.182E+00	-9.571E-02
   11.4000	 9.526E+00	-5.500E+00	 0.000E+00	 6.718E+01	-3.176E-03	-5.094E-03	-7.677E-03	-1.246E-03	 1.063E-01	 1.482E-02	-1.253E-01	-2.031E-01	 5.233E+00	 6.416E-01	 1.812E+03	 3.606E-02	 9.601E-02	-2.228E-02	-6.127E-02	-4.494E-01	-7.017E-01	-3.200E-01	-1.651E+00	 1.105E+00	-2.665E-02	-6.081E+00	-2.424E+00	 5.901E+00	-1.394E-01
   11.4500	 9.526E+00	-5.500E+00	 0.000E+00	 8.642E+01	-4.822E-03	-3.813E-03	-8.188E-03	-2.298E-04	 1.131E-01	 1.100E-03	-1.690E-01	-1.563E-01	 5.360E+00	 6.161E-01	 1.812E+03	 3.474E-02	 9.195E-02	-2.146E-02	-7.541E-02	 1.655E-01	 1.122E+00	-3.707E-01	-1.772E+00	 1.179E+00	-9.837E-02	-6.573E+00	-4.153E-01	 5.572E+00	-7.029E-02
   11.5000	 9.526E+00	-5.500E+00	 0.000E+00	 1.057E+02	-6.777E-03	 4.570E-03	-7.648E-03	 9.018E-04	 1.052E-01	-1.515E-02	-2.209E-01	-7.332E-03	 5.428E+00	 5.953E-01	 1.812E+03	 3.328E-02	 8.851E-02	-3.526E-02	-6.173E-02	 3.486E-01	 1.367E+00	-3.926E-01	-1.698E+00	 1.104E+00	-1.791E-01	-6.233E+00	 1.775E+00	 5.536E+00	-4.844E-02
   11.5500	 9.526E+00	-5.500E+00	 0.000E+00	 1.249E+02	-5.487E-03	 9.719E-03	-7.134E-03	 1.746E-03	 9.780E-02	-2.729E-02	-2.028E-01	 8.207E-02	 5.420E+00	 6.358E-01	 1.812E+03	 3.210E-02	 8.731E-02	-1.681E-02	-3.098E-03	 7.885E-02	 1.873E-01	-3.322E-01	-1.533E+00	 1.024E+00	-1.335E-01	-5.332E+00	 3.699E+00	 5.590E+00	-1.710E-03
   11.6000	 9.526E+00	-5.500E+00	 0.000E+00	 1.441E+02	-2.195E-03	 6.292E-03	-5.806E-03	 2.199E-03	 7.915E-02	-3.322E-02	-1.378E-01	 3.253E-02	 5.350E+00	 6.318E-01	 1.812E+03	 3.154E-02	 8.783E-02	-3.328E-03	 3.350E-02	 3.003E-01	 1.290E+00	-2.247E-01	-1.194E+00	 8.037E-01	-1.870E-02	-3.751E+00	 5.216E+00	 5.532E+00	 3.062E-02
   11.6500	 9.526E+00	-5.500E+00	 0.000E+00	 1.634E+02	-1.173E-03	-2.244E-04	-4.209E-03	 2.726E-03	 5.675E-02	-4.080E-02	-1.162E-01	-9.998E-02	 5.316E+00	 6.705E-01	 1.812E+03	 3.168E-02	 9.087E-02	 7.298E-03	 6.810E-02	 1.634E-01	-7.245E-01	-2.059E-01	-7.835E-01	 5.788E-01	 1.043E-02	-1.856E+00	 6.245E+00	 5.670E+00	 6.602E-02
   11.7000	 9.526E+00	-5.500E+00	 0.000E+00	 1.826E+02	-3.407E-03	-1.750E-03	-1.935E-03	 1.883E-03	 2.555E-02	-2.924E-02	-1.298E-01	-1.413E-01	 5.391E+00	 6.765E-01	 1.812E+03	 3.254E-02	 9.425E-02	 3.006E-02	 9.161E-02	 3.026E-01	 1.103E+00	-3.342E-01	-2.822E-01	 2.781E-01	-6.752E-02	 3.638E-01	 6.485E+00	 5.687E+00	 2.798E-02
   11.7500	 9.526E+00	-5.500E+00	 0.000E+00	 2.019E+02	-5.031E-03	 6.798E-04	-3.367E-04	 9.087E-04	 2.162E-03	-1.487E-02	-1.970E-01	-6.755E-02	 5.282E+00	 6.440E-01	 1.812E+03	 3.401E-02	 9.803E-02	 3.307E-02	 5.396E-02	 5.460E-01	 4.524E-01	-2.085E-01	 1.224E-01	 8.416E-02	-1.309E-01	 2.460E+00	 6.139E+00	 5.921E+00	 5.040E-02
   11.8000	 9.526E+00	-5.500E+00	 0.000E+00	 2.211E+02	 1.818E-03	-1.067E-03	 5.842E-04	-7.788E-04	-1.140E-02	 9.247E-03	-8.814E-02	-8.640E-02	 5.061E+00	 5.954E-01	 1.812E+03	 3.567E-02	 1.008E-01	 2.019E-02	 3.095E-02	-5.085E-01	-1.287E+00	 1.197E-01	 4.761E-01	-9.422E-02	 1.180E-01	 4.281E+00	 4.906E+00	 6.300E+00	-3.235E-03
   11.8500	 9.526E+00	-5.500E+00	 0.000E+00	 2.404E+02	 9.341E-03	-6.313E-03	 1.720E-03	-2.173E-03	-2.671E-02	 2.895E-02	 8.261E-02	-1.837E-01	 5.033E+00	 5.578E-01	 1.812E+03	 3.671E-02	 1.023E-01	 2.284E-02	 3.201E-02	-2.765E-01	-8.946E-01	 2.773E-01	 7.964E-01	-3.139E-01	 3.982E-01	 5.687E+00	 3.228E+00	 6.435E+00	-4.382E-02
   11.9000	 9.526E+00	-5.500E+00	 0.000E+00	 2.596E+02	 8.799E-03	-9.129E-03	 1.967E-03	-3.879E-03	-2.965E-02	 5.281E-02	 9.296E-02	-2.433E-01	 5.095E+00	 6.050E-01	 1.812E+03	 3.741E-02	 1.024E-01	 7.253E-03	-1.946E-02	-1.826E-01	-2.603E-01	 1.952E-01	 9.092E-01	-3.260E-01	 3.697E-01	 6.346E+00	 1.143E+00	 6.405E+00	-6.713E-02
   11.9500	 9.526E+00	-5.500E+00	 0.000E+00	 2.788E+02	 2.414E-03	-6.734E-03	 2.674E-03	-5.936E-03	-4.037E-02	 8.181E-02	-6.056E-02	-1.937E-01	 5.099E+00	 5.662E-01	 1.812E+03	 3.744E-02	 1.014E-01	-7.499E-03	-2.624E-02	-3.944E-01	-1.028E+00	 1.386E-01	 9.530E-01	-4.013E-01	 1.009E-01	 6.436E+00	-1.069E+00	 6.315E+00	-1.002E-01
   12.0000	 9.526E+00	-5.500E+00	 0.000E+00	 2.981E+02	-6.129E-04	-3.131E-03	 2.054E-03	-7.127E-03	-3.190E-02	 9.874E-02	-1.287E-01	-1.166E-01	 5.170E+00	 6.532E-01	 1.812E+03	 3.674E-02	 9.853E-02	-1.424E-02	-6.452E-02	 2.222E-01	 1.232E+00	 9.795E-02	 7.902E-01	-2.790E-01	-1.285E-02	 5.674E+00	-3.126E+00	 5.984E+00	-1.186E-01
   12.0500	 9.526E+00	-5.500E+00	 0.000E+00	 3.173E+02	 8.149E-04	-3.549E-03	 1.059E-03	-8.179E-03	-1.699E-02	 1.130E-01	-6.553E-02	-1.439E-01	 5.254E+00	 6.142E-01	 1.812E+03	 3.583E-02	 9.550E-02	-2.487E-02	-8.370E-02	 9.293E-02	-6.324E-01	 3.384E-03	 5.503E-01	-1.454E-01	 6.147E-02	 4.430E+00	-4.913E+00	 5.863E+00	-9.640E-02
   12.1000	 9.526E+00	-5.500E+00	 0.000E+00	 3.366E+02	-7.076E-04	-6.100E-03	-3.135E-04	-7.872E-03	 2.769E-03	 1.085E-01	-7.695E-02	-2.025E-01	 5.309E+00	 6.660E-01	 1.812E+03	 3.473E-02	 9.181E-02	-2.930E-02	-6.984E-02	-6.584E-01	-5.822E-01	-1.346E-01	 1.789E-01	 6.900E-02	 2.754E-02	 2.593E+00	-5.974E+00	 5.759E+00	-7.727E-02
   12.1500	 9.526E+00	-5.500E+00	 0.000E+00	 3.558E+02	-6.416E-03	-6.652E-03	-1.862E-03	-7.449E-03	 2.453E-02	 1.023E-01	-1.879E-01	-2.232E-01	 5.409E+00	 6.551E-01	 1.812E+03	 3.317E-02	 8.896E-02	-2.188E-02	-2.239E-02	 3.446E-01	 1.115E+00	-3.154E-01	-2.583E-01	 3.328E-01	-1.768E-01	 4.546E-01	-6.496E+00	 5.600E+00	-4.334E-02
   12.2000	 9.526E+00	-5.500E+00	 0.000E+00	 1.505E+01	-1.056E-02	-3.705E-03	-3.239E-03	-6.532E-03	 4.377E-02	 8.935E-02	-2.726E-01	-1.673E-01	 5.408E+00	 6.181E-01	 1.812E+03	 3.220E-02	 8.821E-02	-1.588E-02	-6.440E-03	 3.564E-01	 9.689E-01	-4.249E-01	-6.859E-01	 5.487E-01	-3.207E-01	-1.648E+00	-6.215E+00	 5.580E+00	 1.704E-02
   12.2500	 9.526E+00	-5.500E+00	 0.000E+00	 3.429E+01	-8.790E-03	-1.171E-03	-5.440E-03	-4.966E-03	 7.494E-02	 6.736E-02	-2.299E-01	-1.174E-01	 5.391E+00	 6.073E-01	 1.812E+03	 3.180E-02	 8.937E-02	-2.276E-03	 5.085E-02	 1.416E-01	 6.838E-01	-4.372E-01	-1.145E+00	 8.569E-01	-2.306E-01	-3.681E+00	-5.329E+00	 5.606E+00	 2.638E-02
   12.3000	 9.526E+00	-5.500E+00	 0.000E+00	 5.353E+01	-4.167E-03	-1.988E-03	-6.775E-03	-3.207E-03	 9.384E-02	 4.264E-02	-1.349E-01	-1.330E-01	 5.337E+00	 5.659E-01	 1.812E+03	 3.192E-02	 9.186E-02	 1.135E-02	 4.940E-02	 6.137E-01	 8.122E-01	-3.592E-01	-1.453E+00	 9.902E-01	-4.920E-02	-5.225E+00	-3.830E+00	 5.635E+00	 5.759E-02
   12.3500	 9.526E+00	-5.500E+00	 0.000E+00	 7.278E+01	-2.700E-03	-6.142E-03	-7.995E-03	-6.927E-04	 1.105E-01	 6.288E-03	-1.237E-01	-2.523E-01	 5.207E+00	 6.359E-01	 1.812E+03	 3.299E-02	 9.543E-02	 2.213E-02	 6.415E-02	-8.243E-02	-1.553E+00	-2.912E-01	-1.710E+00	 1.145E+00	-1.362E-02	-6.319E+00	-1.892E+00	 5.897E+00	 3.298E-02
   12.4000	 9.526E+00	-5.500E+00	 0.000E+00	 9.202E+01	-4.528E-03	-2.130E-03	-8.064E-03	-2.542E-05	 1.113E-01	-2.238E-03	-1.676E-01	-1.416E-01	 5.155E+00	 6.277E-01	 1.812E+03	 3.446E-02	 9.818E-02	 3.350E-02	 5.938E-02	-4.701E-01	-6.446E-01	-3.380E-01	-1.761E+00	 1.150E+00	-9.211E-02	-6.554E+00	 1.842E-01	 6.031E+00	 2.964E-02
   12.4500	 9.526E+00	-5.500E+00	 0.000E+00	 1.113E+02	-5.973E-03	 7.007E-03	-7.610E-03	 1.334E-03	 1.046E-01	-2.071E-02	-2.087E-01	 5.971E-02	 5.123E+00	 5.818E-01	 1.812E+03	 3.555E-02	 1.000E-01	 2.122E-02	 3.609E-02	 3.793E-01	 8.255E-01	-3.392E-01	-1.669E+00	 1.095E+00	-1.523E-01	-6.067E+00	 2.386E+00	 6.184E+00	-1.249E-02
   12.5000	 9.526E+00	-5.500E+00	 0.000E+00	 1.305E+02	-4.007E-03	 9.985E-03	-6.869E-03	 1.785E-03	 9.404E-02	-2.766E-02	-1.751E-01	 9.426E-02	 5.099E+00	 6.102E-01	 1.812E+03	 3.663E-02	 1.016E-01	 1.542E-02	 7.717E-03	-2.497E-01	-9.795E-01	-2.637E-01	-1.452E+00	 9.733E-01	-8.207E-02	-4.938E+00	 4.201E+00	 6.411E+00	-3.375E-02
   12.5500	 9.526E+00	-5.500E+00	 0.000E+00	 1.497E+02	-1.240E-03	 5.089E-03	-5.356E-03	 2.461E-03	 7.276E-02	-3.748E-02	-1.220E-01	-1.294E-02	 5.085E+00	 5.924E-01	 1.812E+03	 3.717E-02	 1.014E-01	 5.272E-03	-5.454E-03	-2.519E-01	 2.119E-01	-1.662E-01	-1.076E+00	 7.336E-01	 1.163E-02	-3.199E+00	 5.622E+00	 6.333E+00	-8.860E-02
   12.6000	 9.526E+00	-5.500E+00	 0.000E+00	 1.690E+02	-1.421E-03	 1.670E-04	-3.670E-03	 2.487E-03	 4.904E-02	-3.757E-02	-1.260E-01	-9.760E-02	 5.126E+00	 5.967E-01	 1.812E+03	 3.704E-02	 1.005E-01	-1.016E-02	-5.051E-02	-1.450E-01	-1.261E+00	-1.815E-01	-6.440E-01	 5.084E-01	-3.440E-03	-1.196E+00	 6.405E+00	 6.230E+00	-8.338E-02
   12.6500	 9.526E+00	-5.500E+00	 0.000E+00	 1.882E+02	-4.819E-03	 5.504E-05	-1.150E-03	 1.480E-03	 1.342E-02	-2.319E-02	-1.993E-01	-9.110E-02	 5.186E+00	 5.837E-01	 1.812E+03	 3.659E-02	 9.809E-02	-1.164E-02	-4.025E-02	-5.162E-01	-1.198E+00	-1.921E-01	-1.301E-01	 1.675E-01	-1.423E-01	 1.060E+00	 6.476E+00	 6.039E+00	-1.350E-01
   12.7000	 9.526E+00	-5.500E+00	 0.000E+00	 2.075E+02	-2.927E-03	 8.300E-04	-2.295E-04	 4.956E-04	 1.147E-03	-8.927E-03	-1.371E-01	-5.970E-02	 5.374E+00	 6.205E-01	 1.812E+03	 3.572E-02	 9.469E-02	-1.441E-02	-6.264E-02	 5.123E-02	 1.119E+00	-2.024E-01	 2.139E-01	 6.536E-02	-3.885E-02	 3.031E+00	 5.838E+00	 5.740E+00	-8.297E-02
   12.7500	 9.526E+00	-5.500E+00	 0.000E+00	 2.267E+02	 4.962E-03	-3.375E-03	 1.007E-03	-1.276E-03	-1.664E-02	 1.616E-02	 2.830E-04	-1.343E-01	 5.304E+00	 6.341E-01	 1.812E+03	 3.444E-02	 9.148E-02	-3.384E-02	-6.724E-02	 3.054E-01	 1.135E+00	 1.020E-01	 5.904E-01	-1.796E-01	 2.514E-01	 4.752E+00	 4.423E+00	 5.711E+00	-7.035E-02
   12.8000	 9.526E+00	-5.500E+00	 0.000E+00	 2.460E+02	 9.445E-03	-9.089E-03	 1.758E-03	-2.441E-03	-2.756E-02	 3.269E-02	 7.246E-02	-2.386E-01	 5.258E+00	 6.141E-01	 1.812E+03	 3.322E-02	 8.977E-02	-2.087E-02	-2.060E-02	-6.758E-02	-2.280E-01	 3.046E-01	 8.319E-01	-3.125E-01	 3.912E-01	 5.921E+00	 2.658E+00	 5.742E+00	-2.461E-02
   12.8500	 9.526E+00	-5.500E+00	 0.000E+00	 2.652E+02	 6.142E-03	-1.016E-02	 2.250E-03	-4.466E-03	-3.401E-02	 6.129E-02	 2.657E-02	-2.546E-01	 5.368E+00	 6.790E-01	 1.812E+03	 3.233E-02	 8.911E-02	-1.250E-02	 8.823E-03	 2.241E-01	 1.335E+00	 1.547E-01	 9.331E-01	-3.563E-01	 2.578E-01	 6.407E+00	 5.132E-01	 5.606E+00	 4.451E-03
   12.9000	 9.526E+00	-5.500E+00	 0.000E+00	 2.844E+02	 1.318E-04	-6.421E-03	 2.658E-03	-6.207E-03	-3.979E-02	 8.570E-02	-9.101E-02	-1.845E-01	 5.412E+00	 5.943E-01	 1.812E+03	 3.195E-02	 9.079E-02	-3.623E-03	 3.710E-02	 1.626E-01	-7.626E-01	 1.790E-02	 9.254E-01	-3.774E-01	 2.178E-02	 6.302E+00	-1.632E+00	 5.666E+00	 5.231E-02
   12.9500	 9.526E+00	-5.500E+00	 0.000E+00	 3.037E+02	-1.437E-03	-2.860E-03	 1.815E-03	-7.438E-03	-2.821E-02	 1.031E-01	-1.319E-01	-1.131E-01	 5.366E+00	 6.327E-01	 1.812E+03	 3.228E-02	 9.285E-02	 1.922E-02	 6.981E-02	 2.649E-01	 1.055E+00	 1.874E-02	 7.290E-01	-2.347E-01	-3.630E-02	 5.371E+00	-3.666E+00	 5.611E+00	 2.042E-02
   13.0000	 9.526E+00	-5.500E+00	 0.000E+00	 3.229E+02	 2.443E-04	-3.557E-03	 8.724E-04	-8.253E-03	-1.438E-02	 1.141E-01	-7.715E-02	-1.438E-01	 5.263E+00	 5.973E-01	 1.812E+03	 3.327E-02	 9.565E-02	 2.638E-02	 4.333E-02	 5.648E-01	 7.081E-01	-1.903E-02	 4.743E-01	-1.178E-01	 4.378E-02	 3.996E+00	-5.263E+00	 5.766E+00	 5.748E-02
   13.0500	 9.526E+00	-5.500E+00	 0.000E+00	 3.422E+02	-1.863E-03	-5.755E-03	-8.474E-04	-7.761E-03	 1.020E-02	 1.068E-01	-1.023E-01	-2.008E-01	 5.186E+00	 6.109E-01	 1.812E+03	 3.456E-02	 9.789E-02	 1.587E-02	 2.787E-02	-1.835E-01	-3.817E-01	-1.529E-01	 5.072E-02	 1.584E-01	-1.324E-02	 1.994E+00	-6.186E+00	 6.103E+00	 1.509E-02
   13.1000	 9.526E+00	-5.500E+00	 0.000E+00	 1.406E+00	-6.820E-03	-5.332E-03	-2.216E-03	-7.331E-03	 2.958E-02	 1.005E-01	-1.930E-01	-2.013E-01	 5.130E+00	 6.081E-01	 1.812E+03	 3.561E-02	 9.984E-02	 2.380E-02	 4.011E-02	-2.888E-01	-1.084E+00	-3.153E-01	-3.746E-01	 3.779E-01	-1.903E-01	-1.571E-01	-6.531E+00	 6.312E+00	-1.787E-02
   13.1500	 9.526E+00	-5.500E+00	 0.000E+00	 2.065E+01	-9.027E-03	-2.340E-03	-4.004E-03	-6.112E-03	 5.463E-02	 8.344E-02	-2.386E-01	-1.417E-01	 5.102E+00	 6.104E-01	 1.812E+03	 3.649E-02	 1.007E-01	 1.498E-02	 7.418E-03	-7.103E-02	 2.487E-02	-3.856E-01	-8.350E-01	 6.516E-01	-2.566E-01	-2.292E+00	-6.023E+00	 6.299E+00	-4.456E-02
   13.2000	 9.526E+00	-5.500E+00	 0.000E+00	 3.989E+01	-6.476E-03	-8.970E-04	-6.005E-03	-4.512E-03	 8.277E-02	 6.098E-02	-1.890E-01	-1.118E-01	 5.054E+00	 6.340E-01	 1.812E+03	 3.696E-02	 1.010E-01	 1.140E-03	-5.193E-03	-3.617E-01	-1.132E+00	-3.477E-01	-1.261E+00	 9.125E-01	-1.466E-01	-4.230E+00	-4.971E+00	 6.286E+00	-7.889E-02
   13.2500	 9.526E+00	-5.500E+00	 0.000E+00	 5.913E+01	-3.027E-03	-2.712E-03	-7.192E-03	-2.412E-03	 9.962E-02	 3.235E-02	-1.159E-01	-1.126E-01	 5.182E+00	 5.932E-01	 1.812E+03	 3.680E-02	 9.945E-02	-2.048E-03	-3.398E-02	 1.150E-01	 9.024E-01	-3.189E-01	-1.541E+00	 1.038E+00	-1.184E-02	-5.610E+00	-3.257E+00	 6.042E+00	-1.095E-01
   13.3000	 9.526E+00	-5.500E+00	 0.000E+00	 7.837E+01	-3.479E-03	-5.640E-03	-8.217E-03	-4.104E-04	 1.136E-01	 2.638E-03	-1.425E-01	-2.304E-01	 5.225E+00	 6.397E-01	 1.812E+03	 3.638E-02	 9.741E-02	-1.531E-02	-6.808E-02	 1.464E-01	-5.239E-01	-3.145E-01	-1.757E+00	 1.182E+00	-4.689E-02	-6.496E+00	-1.269E+00	 5.965E+00	-9.460E-02
   13.3500	 9.526E+00	-5.500E+00	 0.000E+00	 9.762E+01	-5.915E-03	 4.459E-04	-7.860E-03	 2.982E-04	 1.083E-01	-7.344E-03	-2.005E-01	-1.131E-01	 5.282E+00	 6.372E-01	 1.812E+03	 3.564E-02	 9.431E-02	-2.545E-02	-6.508E-02	-7.054E-01	-6.992E-01	-3.707E-01	-1.740E+00	 1.127E+00	-1.456E-01	-6.453E+00	 8.667E-01	 5.912E+00	-9.116E-02
   13.4000	 9.526E+00	-5.500E+00	 0.000E+00	 1.169E+02	-6.383E-03	 8.871E-03	-7.438E-03	 1.600E-03	 1.021E-01	-2.460E-02	-2.191E-01	 9.042E-02	 5.321E+00	 6.049E-01	 1.812E+03	 3.422E-02	 9.147E-02	-2.193E-02	-3.188E-02	 1.974E-01	 7.187E-01	-3.562E-01	-1.623E+00	 1.074E+00	-1.666E-01	-5.805E+00	 2.967E+00	 5.760E+00	-6.302E-02
   13.4500	 9.526E+00	-5.500E+00	 0.000E+00	 1.361E+02	-3.509E-03	 9.118E-03	-6.447E-03	 1.841E-03	 8.818E-02	-2.788E-02	-1.630E-01	 9.908E-02	 5.327E+00	 6.136E-01	 1.812E+03	 3.315E-02	 9.013E-02	-1.957E-02	-2.174E-02	 1.966E-01	 5.298E-01	-2.699E-01	-1.351E+00	 9.076E-01	-6.317E-02	-4.467E+00	 4.625E+00	 5.700E+00	-6.089E-03
   13.5000	 9.526E+00	-5.500E+00	 0.000E+00	 1.553E+02	-1.164E-03	 2.358E-03	-4.887E-03	 2.681E-03	 6.628E-02	-4.062E-02	-1.163E-01	-6.767E-02	 5.338E+00	 6.488E-01	 1.812E+03	 3.241E-02	 9.021E-02	-1.026E-02	 3.003E-02	 1.477E-01	 7.531E-01	-2.017E-01	-9.593E-01	 6.696E-01	 1.520E-02	-2.664E+00	 5.909E+00	 5.647E+00	 6.803E-03
   13.5500	 9.526E+00	-5.500E+00	 0.000E+00	 1.746E+02	-2.100E-03	-1.643E-03	-3.070E-03	 2.310E-03	 4.084E-02	-3.538E-02	-1.306E-01	-1.445E-01	 5.232E+00	 6.715E-01	 1.812E+03	 3.209E-02	 9.149E-02	 1.900E-03	 2.382E-02	 6.292E-01	 1.123E+00	-2.452E-01	-4.937E-01	 4.487E-01	 6.798E-03	-5.737E-01	 6.445E+00	 5.602E+00	 3.906E-02
   13.6000	 9.526E+00	-5.500E+00	 0.000E+00	 1.938E+02	-5.975E-03	-2.833E-04	-6.556E-04	 1.290E-03	 5.651E-03	-2.024E-02	-2.537E-01	-8.700E-02	 5.213E+00	 6.371E-01	 1.812E+03	 3.268E-02	 9.397E-02	 1.292E-02	 4.135E-02	 5.917E-03	-1.444E+00	-1.150E-01	-1.647E-02	 1.102E-01	-1.955E-01	 1.632E+00	 6.394E+00	 5.818E+00	 3.497E-02
   13.6500	 9.526E+00	-5.500E+00	 0.000E+00	 2.131E+02	-1.530E-03	-1.764E-04	 1.959E-05	 7.420E-05	-3.021E-03	-2.775E-03	-1.358E-01	-7.038E-02	 5.244E+00	 6.358E-01	 1.812E+03	 3.378E-02	 9.602E-02	 2.568E-02	 5.074E-02	-4.968E-01	-6.940E-01	-5.240E-02	 3.098E-01	 1.762E-02	 2.376E-04	 3.532E+00	 5.509E+00	 5.932E+00	 3.469E-02
   13.7000	 9.526E+00	-5.500E+00	 0.000E+00	 2.323E+02	 7.213E-03	-4.597E-03	 1.402E-03	-1.675E-03	-2.163E-02	 2.178E-02	 6.533E-02	-1.573E-01	 5.244E+00	 6.310E-01	 1.812E+03	 3.462E-02	 9.769E-02	 2.056E-02	 4.186E-02	 4.749E-01	 1.095E+00	 1.088E-01	 6.908E-01	-2.543E-01	 3.410E-01	 5.168E+00	 3.971E+00	 6.046E+00	 3.070E-03
   13.7500	 9.526E+00	-5.500E+00	 0.000E+00	 2.516E+02	 9.559E-03	-8.938E-03	 1.805E-03	-2.960E-03	-2.781E-02	 3.980E-02	 9.062E-02	-2.427E-01	 5.121E+00	 5.933E-01	 1.812E+03	 3.571E-02	 9.964E-02	 1.650E-02	 1.735E-02	-1.522E-01	-7.477E-01	 2.667E-01	 8.669E-01	-3.108E-01	 3.977E-01	 6.135E+00	 2.069E+00	 6.287E+00	-1.085E-02
   13.8000	 9.526E+00	-5.500E+00	 0.000E+00	 2.708E+02	 4.503E-03	-8.122E-03	 2.519E-03	-5.199E-03	-3.837E-02	 7.158E-02	-2.732E-02	-2.158E-01	 5.086E+00	 6.051E-01	 1.812E+03	 3.644E-02	 1.003E-01	 1.171E-02	 1.761E-02	-2.158E-01	 1.677E-01	 2.147E-01	 9.556E-01	-3.936E-01	 1.772E-01	 6.473E+00	-1.540E-01	 6.265E+00	-6.705E-02
   13.8500	 9.526E+00	-5.500E+00	 0.000E+00	 2.900E+02	 3.089E-05	-4.264E-03	 2.445E-03	-6.639E-03	-3.705E-02	 9.185E-02	-1.032E-01	-1.400E-01	 5.125E+00	 5.818E-01	 1.812E+03	 3.666E-02	 1.003E-01	-1.609E-03	-3.047E-02	 1.682E-03	-8.143E-01	 7.588E-02	 8.804E-01	-3.435E-01	 1.320E-02	 6.099E+00	-2.283E+00	 6.177E+00	-6.978E-02
   13.9000	 9.526E+00	-5.500E+00	 0.000E+00	 3.093E+02	 2.476E-04	-2.703E-03	 1.430E-03	-7.833E-03	-2.240E-02	 1.084E-01	-8.404E-02	-1.197E-01	 5.183E+00	 5.910E-01	 1.812E+03	 3.666E-02	 9.908E-02	-4.681E-03	-2.530E-02	-5.596E-01	-1.557E+00	 2.390E-02	 6.572E-01	-1.893E-01	 3.602E-02	 5.014E+00	-4.254E+00	 6.112E+00	-1.243E-01
   13.9500	 9.526E+00	-5.500E+00	 0.000E+00	 3.285E+02	 7.425E-04	-4.652E-03	 4.185E-04	-8.163E-03	-7.789E-03	 1.128E-01	-5.933E-02	-1.666E-01	 5.195E+00	 6.534E-01	 1.812E+03	 3.621E-02	 9.647E-02	-7.350E-03	-5.109E-02	-2.228E-01	 3.496E-01	-4.156E-02	 3.603E-01	-5.545E-02	 7.057E-02	 3.443E+00	-5.606E+00	 5.876E+00	-8.483E-02
   14.0000	 9.526E+00	-5.500E+00	 0.000E+00	 3.478E+02	-3.570E-03	-6.607E-03	-1.369E-03	-7.635E-03	 1.743E-02	 1.050E-01	-1.392E-01	-2.186E-01	 5.292E+00	 6.660E-01	 1.812E+03	 3.514E-02	 9.344E-02	-2.805E-02	-5.846E-02	 3.578E-01	 1.322E+00	-2.036E-01	-8.821E-02	 2.461E-01	-7.674E-02	 1.336E+00	-6.355E+00	 5.814E+00	-7.964E-02
   14.0500	 9.526E+00	-5.500E+00	 0.000E+00	 7.004E+00	-9.035E-03	-5.095E-03	-2.538E-03	-7.038E-03	 3.401E-02	 9.642E-02	-2.397E-01	-1.963E-01	 5.328E+00	 6.421E-01	 1.812E+03	 3.405E-02	 9.166E-02	-2.223E-02	-3.315E-02	-9.997E-02	-2.338E-01	-3.798E-01	-4.978E-01	 4.355E-01	-2.717E-01	-7.812E-01	-6.439E+00	 5.849E+00	-4.109E-02
   14.1000	 9.526E+00	-5.500E+00	 0.000E+00	 2.625E+01	-9.812E-03	-1.966E-03	-4.611E-03	-5.623E-03	 6.334E-02	 7.654E-02	-2.469E-01	-1.347E-01	 5.392E+00	 6.205E-01	 1.812E+03	 3.309E-02	 9.051E-02	-1.489E-02	-2.248E-03	 1.245E-01	 1.051E+00	-4.610E-01	-9.701E-01	 7.488E-01	-2.744E-01	-2.880E+00	-5.754E+00	 5.696E+00	-1.789E-02
   14.1500	 9.526E+00	-5.500E+00	 0.000E+00	 4.549E+01	-6.160E-03	-1.379E-03	-6.285E-03	-4.017E-03	 8.683E-02	 5.399E-02	-1.782E-01	-1.229E-01	 5.295E+00	 6.077E-01	 1.812E+03	 3.244E-02	 9.125E-02	-1.074E-02	 1.434E-02	 2.029E-01	-5.860E-01	-3.810E-01	-1.341E+00	 9.431E-01	-1.277E-01	-4.651E+00	-4.552E+00	 5.686E+00	 3.329E-02
   14.2000	 9.526E+00	-5.500E+00	 0.000E+00	 6.473E+01	-3.041E-03	-4.249E-03	-7.492E-03	-1.592E-03	 1.038E-01	 2.049E-02	-1.196E-01	-1.554E-01	 5.304E+00	 5.858E-01	 1.812E+03	 3.244E-02	 9.243E-02	 1.113E-02	 5.061E-02	 1.208E-01	 6.649E-01	-3.256E-01	-1.610E+00	 1.078E+00	-1.704E-02	-5.925E+00	-2.709E+00	 5.608E+00	 3.541E-03
   14.2500	 9.526E+00	-5.500E+00	 0.000E+00	 8.397E+01	-3.863E-03	-4.382E-03	-8.242E-03	-3.121E-04	 1.139E-01	 2.132E-03	-1.496E-01	-1.721E-01	 5.283E+00	 6.028E-01	 1.812E+03	 3.303E-02	 9.426E-02	 1.992E-02	 3.134E-02	 5.241E-01	 8.852E-01	-3.387E-01	-1.769E+00	 1.183E+00	-6.158E-02	-6.562E+00	-7.164E-01	 5.687E+00	 5.335E-02
   14.3000	 9.526E+00	-5.500E+00	 0.000E+00	 1.032E+02	-5.916E-03	 2.989E-03	-7.729E-03	 7.464E-04	 1.063E-01	-1.334E-02	-2.044E-01	-5.216E-02	 5.230E+00	 6.094E-01	 1.812E+03	 3.396E-02	 9.601E-02	 1.044E-02	 2.440E-02	-4.580E-03	 4.266E-03	-3.531E-01	-1.713E+00	 1.107E+00	-1.489E-01	-6.324E+00	 1.486E+00	 5.986E+00	 1.981E-02