
FAST Summary File

Predictions were generated on 14-Jan-2014 at 09:55:12 using FAST (v8.03.02b-bjj, 3-Oct-2013), compiled for 32-bit systems using single precision
  compiled with
    NWTC Subroutine Library (v2.03.00b-bjj, 1-Oct-2013)
    ElastoDyn (v1.01.02b-bjj, 03-Oct-2013)
    ServoDyn (v1.01.01b-bjj, 03-Oct-2013)
    AeroDyn (v14.02.00c-mlb, 02-Oct-2013)
    InflowWind (v2.00.00b-adp, 17-Sept-2013)
    HydroDyn (unknown version, unknown date) [not called]
    SubDyn (unknown version, unknown date) [not called]
    MAP (unknown version, unknown date) [not called]


Modeling an onshore turbine
Description from the FAST input file: 
  FAST Certification Test #18: NREL 5.0 MW Baseline Wind Turbine (Onshore)

Interpolation order for input/output time histories: 0 (nearest neighbor)
Number of correction iterations:  0


   Requested Channels in FAST Output File(s) 
  -------------------------------------------
  Number  Name        Units       Generated by
  ------  ----------  ----------  ------------
       1  Time        (s)         FAST
       2  WindVxi     (m/s)       InflowWind
       3  WindVyi     (m/s)       InflowWind
       4  WindVzi     (m/s)       InflowWind
       5  OoPDefl1    (m)         ElastoDyn
       6  IPDefl1     (m)         ElastoDyn
       7  TwstDefl1   (deg)       ElastoDyn
       8  BldPitch1   (deg)       ElastoDyn
       9  Azimuth     (deg)       ElastoDyn
      10  RotSpeed    (rpm)       ElastoDyn
      11  GenSpeed    (rpm)       ElastoDyn
      12  TTDspFA     (m)         ElastoDyn
      13  TTDspSS     (m)         ElastoDyn
      14  TTDspTwst   (deg)       ElastoDyn
      15  Spn2MLxb1   (kN·m)      ElastoDyn
      16  Spn2MLyb1   (kN·m)      ElastoDyn
      17  RootFxc1    (kN)        ElastoDyn
      18  RootFyc1    (kN)        ElastoDyn
      19  RootFzc1    (kN)        ElastoDyn
      20  RootMxc1    (kN·m)      ElastoDyn
      21  RootMyc1    (kN·m)      ElastoDyn
      22  RootMzc1    (kN·m)      ElastoDyn
      23  RotTorq     (kN·m)      ElastoDyn
      24  LSSGagMya   (kN·m)      ElastoDyn
      25  LSSGagMza   (kN·m)      ElastoDyn
      26  YawBrFxp    (kN)        ElastoDyn
      27  YawBrFyp    (kN)        ElastoDyn
      28  YawBrFzp    (kN)        ElastoDyn
      29  YawBrMxp    (kN·m)      ElastoDyn
      30  YawBrMyp    (kN·m)      ElastoDyn
      31  YawBrMzp    (kN·m)      ElastoDyn
      32  TwrBsFxt    (kN)        ElastoDyn
      33  TwrBsFyt    (kN)        ElastoDyn
      34  TwrBsFzt    (kN)        ElastoDyn
      35  TwrBsMxt    (kN·m)      ElastoDyn
      36  TwrBsMyt    (kN·m)      ElastoDyn
      37  TwrBsMzt    (kN·m)      ElastoDyn
      38  GenPwr      (kW)        ServoDyn
      39  GenTq       (kN·m)      ServoDyn
