
FAST Summary File

Predictions were generated on 07-May-2014 at 14:51:40 using FAST (v8.07.00a-bjj, 7-May-2014), compiled for 32-bit systems using single precision
  compiled with
    NWTC Subroutine Library (v2.03.00d-bjj, 22-Jan-2014)
    ElastoDyn (v1.01.06a-bjj, 2-May-2014)
    ServoDyn (v1.01.02a-bjj, 31-Jan-2014)
    AeroDyn (v14.02.01b-bjj, 29-Jan-2014)
    InflowWind (v2.00.01a-bjj, 22-Jan-2014)
    HydroDyn (v2.00.04b-gjh, 04-Mar-2014)
    SubDyn (v1.00.00b-rrd, 5-May-2014)
    MAP (unknown version, unknown date) [not called]
    FEAMooring (unknown version, unknown date) [not called]
    IceFloe (unknown version, unknown date) [not called]


Modeling a fixed-bottom offshore turbine
Description from the FAST input file: 
  FAST Certification Test #19: NREL 5.0 MW Baseline Wind Turbine with Monopile RF Configuration, for use in offshore analysis

Interpolation order for input/output time histories: 2 (quadratic)
Number of correction iterations:  0
Number of rows in Jacobian matrix used for coupling ElastoDyn, SubDyn, and HydroDyn:    504


   Requested Time Steps  
  -------------------------------------------------
  Component          Time Step (s)    Subcycles (-)
  -----------------  ---------------  -------------
  FAST (glue code)    3.000E-03
  ElastoDyn           3.000E-03              1
  AeroDyn             3.000E-03              1
  ServoDyn            3.000E-03              1
  HydroDyn            3.000E-03              1
  SubDyn              3.000E-03              1
  FAST output files   3.000E-03              1


   Requested Channels in FAST Output File(s)  
  --------------------------------------------
  Number  Name        Units       Generated by
  ------  ----------  ----------  ------------
       1  Time        (s)         FAST
       2  WindVxi     (m/s)       InflowWind
       3  WindVyi     (m/s)       InflowWind
       4  WindVzi     (m/s)       InflowWind
       5  PtfmTAxi    (m/s^2)     ElastoDyn
       6  PtfmTAyi    (m/s^2)     ElastoDyn
       7  PtfmTAzi    (m/s^2)     ElastoDyn
       8  PtfmRAxi    (deg/s^2)   ElastoDyn
       9  PtfmRAyi    (deg/s^2)   ElastoDyn
      10  PtfmRAzi    (deg/s^2)   ElastoDyn
      11  OoPDefl1    (m)         ElastoDyn
      12  IPDefl1     (m)         ElastoDyn
      13  TwstDefl1   (deg)       ElastoDyn
      14  BldPitch1   (deg)       ElastoDyn
      15  Azimuth     (deg)       ElastoDyn
      16  RotSpeed    (rpm)       ElastoDyn
      17  GenSpeed    (rpm)       ElastoDyn
      18  TwHt1TPxi   (m)         ElastoDyn
      19  TwHt1TPyi   (m)         ElastoDyn
      20  TTDspTwst   (deg)       ElastoDyn
      21  PtfmTDxi    (m)         ElastoDyn
      22  PtfmTDyi    (m)         ElastoDyn
      23  PtfmTDzi    (m)         ElastoDyn
      24  PtfmRDxi    (deg)       ElastoDyn
      25  PtfmRDyi    (deg)       ElastoDyn
      26  PtfmRDzi    (deg)       ElastoDyn
      27  Spn2MLxb1   (kN·m)      ElastoDyn
      28  Spn2MLyb1   (kN·m)      ElastoDyn
      29  RootFxc1    (kN)        ElastoDyn
      30  RootFyc1    (kN)        ElastoDyn
      31  RootFzc1    (kN)        ElastoDyn
      32  RootMxc1    (kN·m)      ElastoDyn
      33  RootMyc1    (kN·m)      ElastoDyn
      34  RootMzc1    (kN·m)      ElastoDyn
      35  RotTorq     (kN·m)      ElastoDyn
      36  LSSGagMya   (kN·m)      ElastoDyn
      37  LSSGagMza   (kN·m)      ElastoDyn
      38  YawBrFxp    (kN)        ElastoDyn
      39  YawBrFyp    (kN)        ElastoDyn
      40  YawBrFzp    (kN)        ElastoDyn
      41  YawBrMxp    (kN·m)      ElastoDyn
      42  YawBrMyp    (kN·m)      ElastoDyn
      43  YawBrMzp    (kN·m)      ElastoDyn
      44  GenPwr      (kW)        ServoDyn
      45  GenTq       (kN·m)      ServoDyn
      46  Wave1Elev   (m)         HydroDyn
      47  ReactFXss   (N)         SubDyn
      48  ReactFYss   (N)         SubDyn
      49  ReactFZss   (N)         SubDyn
      50  ReactMXss   (Nm)        SubDyn
      51  ReactMYss   (Nm)        SubDyn
      52  ReactMZss   (Nm)        SubDyn
      53  IntfFXss    (N)         SubDyn
      54  IntfFYss    (N)         SubDyn
      55  IntfFZss    (N)         SubDyn
      56  IntfMXss    (Nm)        SubDyn
      57  IntfMYss    (Nm)        SubDyn
      58  IntfMZss    (Nm)        SubDyn
      59  IntfTDXss   (m)         SubDyn
      60  IntfTDYss   (m)         SubDyn
      61  IntfTDZss   (m)         SubDyn
      62  IntfRDXss   (rad)       SubDyn
      63  IntfRDYss   (rad)       SubDyn
      64  IntfRDZss   (rad)       SubDyn
      65  IntfTAXss   (m/s^2)     SubDyn
      66  IntfTAYss   (m/s^2)     SubDyn
      67  IntfTAZss   (m/s^2)     SubDyn
      68  IntfRAXss   (rad/s^2)   SubDyn
      69  IntfRAYss   (rad/s^2)   SubDyn
      70  IntfRAZss   (rad/s^2)   SubDyn
      71  M1N1TAxE    (m/s^2)     SubDyn
      72  M1N2TAxE    (m/s^2)     SubDyn
      73  M1N3TAxE    (m/s^2)     SubDyn
      74  M1N4TAxE    (m/s^2)     SubDyn
      75  M1N5TAxE    (m/s^2)     SubDyn
