
FAST Summary File

Predictions were generated on 01-Jul-2014 at 22:35:43 using FAST (v8.08.00c-bjj, 30-June-2014), compiled for 32-bit systems using single precision
  compiled with
    NWTC Subroutine Library (v2.03.03b-bjj, 30-June-2014)
    ElastoDyn (v1.01.06b-bjj, 30-June-2014)
    AeroDyn (v14.02.01c-bjj, 30-June-2014)
    InflowWind (v2.00.01b-bjj, 30-June-2014)
    ServoDyn (v1.01.02a-bjj, 30-June-2014)
    HydroDyn (v2.01.01c-gjh, 30-Jun-2014)
    SubDyn (v1.01.00a-rrd, 30-Jun-2014)
    MAP (unknown version, unknown date) [not called]
    FEAMooring (unknown version, unknown date) [not called]
    IceFloe (unknown version, unknown date) [not called]
    IceDyn (unknown version, unknown date) [not called]


Modeling a fixed-bottom offshore turbine
Description from the FAST input file: 
  FAST Certification Test #20: NREL 5.0 MW Baseline Wind Turbine with OC3 Tripod Configuration, for use in offshore analysis

Interpolation order for input/output time histories: 2 (quadratic)
Number of correction iterations:  1
Number of rows in Jacobian matrix used for coupling ElastoDyn, SubDyn, and HydroDyn:   4860


   Requested Time Steps  
  -------------------------------------------------
  Component          Time Step (s)    Subcycles (-)
  -----------------  ---------------  -------------
  FAST (glue code)    1.000E-02
  ElastoDyn           1.000E-02              1
  AeroDyn             1.000E-02              1
  ServoDyn            1.000E-02              1
  HydroDyn            1.000E-02              1
  SubDyn              1.000E-02              1
  FAST output files   5.000E-02              5^-1


   Requested Channels in FAST Output File(s)  
  --------------------------------------------
  Number  Name        Units       Generated by
  ------  ----------  ----------  ------------
       1  Time        (s)         FAST
       2  WindVxi     (m/s)       InflowWind
       3  WindVyi     (m/s)       InflowWind
       4  WindVzi     (m/s)       InflowWind
       5  OoPDefl1    (m)         ElastoDyn
       6  IPDefl1     (m)         ElastoDyn
       7  TwstDefl1   (deg)       ElastoDyn
       8  BldPitch1   (deg)       ElastoDyn
       9  Azimuth     (deg)       ElastoDyn
      10  RotSpeed    (rpm)       ElastoDyn
      11  GenSpeed    (rpm)       ElastoDyn
      12  TwHt1TPxi   (m)         ElastoDyn
      13  TwHt1TPyi   (m)         ElastoDyn
      14  TTDspTwst   (deg)       ElastoDyn
      15  Spn2MLxb1   (kN·m)      ElastoDyn
      16  Spn2MLyb1   (kN·m)      ElastoDyn
      17  RootFxc1    (kN)        ElastoDyn
      18  RootFyc1    (kN)        ElastoDyn
      19  RootFzc1    (kN)        ElastoDyn
      20  RootMxc1    (kN·m)      ElastoDyn
      21  RootMyc1    (kN·m)      ElastoDyn
      22  RootMzc1    (kN·m)      ElastoDyn
      23  RotTorq     (kN·m)      ElastoDyn
      24  LSSGagMya   (kN·m)      ElastoDyn
      25  LSSGagMza   (kN·m)      ElastoDyn
      26  YawBrFxp    (kN)        ElastoDyn
      27  YawBrFyp    (kN)        ElastoDyn
      28  YawBrFzp    (kN)        ElastoDyn
      29  YawBrMxp    (kN·m)      ElastoDyn
      30  YawBrMyp    (kN·m)      ElastoDyn
      31  YawBrMzp    (kN·m)      ElastoDyn
      32  GenPwr      (kW)        ServoDyn
      33  GenTq       (kN·m)      ServoDyn
      34  Wave1Elev   (m)         HydroDyn
      35  M1N1Vxi     (m/s)       HydroDyn
      36  M1N1Vzi     (m/s)       HydroDyn
      37  M1N1Axi     (m/s^2)     HydroDyn
      38  M1N1Azi     (m/s^2)     HydroDyn
      39  M1N1FDxi    (N/m)       HydroDyn
      40  M1N1FDzi    (N/m)       HydroDyn
      41  M1N1FIxi    (N/m)       HydroDyn
      42  M1N1FIzi    (N/m)       HydroDyn
      43  M1N1FAxi    (N/m)       HydroDyn
      44  M1N1FAzi    (N/m)       HydroDyn
      45  M1N1TDxss   (m)         SubDyn
      46  M1N1TDyss   (m)         SubDyn
      47  M1N1RDxe    (rad)       SubDyn
      48  M1N1RDye    (rad)       SubDyn
      49  M1N2FKxe    (N)         SubDyn
      50  M1N2FKye    (N)         SubDyn
      51  M1N2FKze    (N)         SubDyn
      52  M1N2MKxe    (N*m)       SubDyn
      53  M1N2MKye    (N*m)       SubDyn
      54  M1N2MKze    (N*m)       SubDyn
      55  M1N1FKxe    (N)         SubDyn
      56  M1N1FKye    (N)         SubDyn
      57  M1N1FKze    (N)         SubDyn
      58  M1N1MKxe    (N*m)       SubDyn
      59  M1N1MKye    (N*m)       SubDyn
      60  M1N1MKze    (N*m)       SubDyn
      61  M2N1FKxe    (N)         SubDyn
      62  M2N1FKye    (N)         SubDyn
      63  M2N1FKze    (N)         SubDyn
      64  M2N1MKxe    (N*m)       SubDyn
      65  M2N1MKye    (N*m)       SubDyn
      66  M2N1MKze    (N*m)       SubDyn
      67  M3N1FKxe    (N)         SubDyn
      68  M3N1FKye    (N)         SubDyn
      69  M3N1FKze    (N)         SubDyn
      70  M3N1MKxe    (N*m)       SubDyn
      71  M3N1MKye    (N*m)       SubDyn
      72  M3N1MKze    (N*m)       SubDyn
      73  M4N1FKxe    (N)         SubDyn
      74  M4N1FKye    (N)         SubDyn
      75  M4N1FKze    (N)         SubDyn
      76  M4N1MKxe    (N*m)       SubDyn
      77  M4N1MKye    (N*m)       SubDyn
      78  M4N1MKze    (N*m)       SubDyn
      79  M5N1FKxe    (N)         SubDyn
      80  M5N1FKye    (N)         SubDyn
      81  M5N1FKze    (N)         SubDyn
      82  M5N1MKxe    (N*m)       SubDyn
      83  M5N1MKye    (N*m)       SubDyn
      84  M5N1MKze    (N*m)       SubDyn
      85  M6N1FKxe    (N)         SubDyn
      86  M6N1FKye    (N)         SubDyn
      87  M6N1FKze    (N)         SubDyn
      88  M6N1MKxe    (N*m)       SubDyn
      89  M6N1MKye    (N*m)       SubDyn
      90  M6N1MKze    (N*m)       SubDyn
      91  M7N1FKxe    (N)         SubDyn
      92  M7N1FKye    (N)         SubDyn
      93  M7N1FKze    (N)         SubDyn
      94  M7N1MKxe    (N*m)       SubDyn
      95  M7N1MKye    (N*m)       SubDyn
      96  M7N1MKze    (N*m)       SubDyn
      97  M8N1FKxe    (N)         SubDyn
      98  M8N1FKye    (N)         SubDyn
      99  M8N1FKze    (N)         SubDyn
     100  M8N1MKxe    (N*m)       SubDyn
     101  M8N1MKye    (N*m)       SubDyn
     102  M8N1MKze    (N*m)       SubDyn
     103  M9N1FKxe    (N)         SubDyn
     104  M9N1FKye    (N)         SubDyn
     105  M9N1FKze    (N)         SubDyn
     106  M9N1MKxe    (N*m)       SubDyn
     107  M9N1MKye    (N*m)       SubDyn
     108  M9N1MKze    (N*m)       SubDyn
