
FAST Summary File

Predictions were generated on 02-Jul-2014 at 13:24:07 using FAST (v8.08.00c-bjj, 30-June-2014), compiled for 32-bit systems using single precision
  compiled with
    NWTC Subroutine Library (v2.03.03b-bjj, 30-June-2014)
    ElastoDyn (v1.01.06b-bjj, 30-June-2014)
    AeroDyn (v14.02.01c-bjj, 30-June-2014)
    InflowWind (v2.00.01b-bjj, 30-June-2014)
    ServoDyn (v1.01.02a-bjj, 30-June-2014)
    HydroDyn (unknown version, unknown date) [not called]
    SubDyn (unknown version, unknown date) [not called]
    MAP (unknown version, unknown date) [not called]
    FEAMooring (unknown version, unknown date) [not called]
    IceFloe (unknown version, unknown date) [not called]
    IceDyn (unknown version, unknown date) [not called]


Modeling a land-based turbine
Description from the FAST input file: 
  FAST Certification Test #08: AOC 15/50 with many DOFs with fixed yaw error and steady wind. Many parameters are pure fiction.

Interpolation order for input/output time histories: 2 (quadratic)
Number of correction iterations:  0


   Requested Time Steps  
  -------------------------------------------------
  Component          Time Step (s)    Subcycles (-)
  -----------------  ---------------  -------------
  FAST (glue code)    5.000E-03
  ElastoDyn           5.000E-03              1
  AeroDyn             5.000E-03              1
  ServoDyn            5.000E-03              1
  FAST output files   5.000E-02             10^-1


   Requested Channels in FAST Output File(s)  
  --------------------------------------------
  Number  Name        Units       Generated by
  ------  ----------  ----------  ------------
       1  Time        (s)         FAST
       2  WindVxi     (m/s)       InflowWind
       3  WindVyi     (m/s)       InflowWind
       4  WindVzi     (m/s)       InflowWind
       5  LSSGagPxa   (deg)       ElastoDyn
       6  TipDxb1     (m)         ElastoDyn
       7  TipDxb2     (m)         ElastoDyn
       8  TipDyb1     (m)         ElastoDyn
       9  TipDyb2     (m)         ElastoDyn
      10  RollDefl1   (deg)       ElastoDyn
      11  RollDefl2   (deg)       ElastoDyn
      12  PtchDefl1   (deg)       ElastoDyn
      13  PtchDefl2   (deg)       ElastoDyn
      14  Spn1ALxb1   (m/s^2)     ElastoDyn
      15  Spn1ALyb1   (m/s^2)     ElastoDyn
      16  HSShftV     (rpm)       ElastoDyn
      17  TTDspRoll   (deg)       ElastoDyn
      18  TTDspPtch   (deg)       ElastoDyn
      19  YawBrRVxp   (deg/s)     ElastoDyn
      20  YawBrRVyp   (deg/s)     ElastoDyn
      21  YawBrRAxp   (deg/s^2)   ElastoDyn
      22  YawBrRAyp   (deg/s^2)   ElastoDyn
      23  RootFxb1    (kN)        ElastoDyn
      24  RootFyb1    (kN)        ElastoDyn
      25  Spn2MLxb1   (kN·m)      ElastoDyn
      26  Spn2MLyb1   (kN·m)      ElastoDyn
      27  LSShftFya   (kN)        ElastoDyn
      28  LSShftFza   (kN)        ElastoDyn
      29  YawBrFxn    (kN)        ElastoDyn
      30  YawBrFyn    (kN)        ElastoDyn
