
Predictions were generated on 13-Apr-2016 at 14:07:01 using FAST (v8.15.00a-bjj, 12-Apr-2016), compiled as a 32-bit application using single precision
 linked with  NWTC Subroutine Library (v2.08.00, 5-Apr-2016); ElastoDyn (v1.03.02a-bjj, 8-Apr-2016); InflowWind (v3.02.00a-bjj, 11-Apr-2016); AeroDyn (v15.02.03, 12-Apr-2016); ServoDyn (v1.05.00a-bjj, 11-Mar-2016)

Description from the FAST input file: FAST Certification Test #02: AWT-27CR2 with many DOFs with startup and shutdown and steady wind

Time      	Wind1VelX 	Wind1VelY 	Wind1VelZ 	Spn1ALxb1 	Spn1ALyb1 	Spn1ALzb1 	RotSpeed  	LSSGagVxa 	RootFxb1  	RootFyb1  	RootFxb2  	RootFyb2  	RootMIP2  	RootMOoP2 	Spn1MLxb1 	Spn1MLyb1 	RotTorq   	LSSTipMys 	LSSTipMzs 	LSSGagMya 	LSSGagMza 	HSShftTq  	HSSBrTq   	HSShftPwr 	GenTq     	GenPwr    
(s)       	(m/s)     	(m/s)     	(m/s)     	(m/s^2)   	(m/s^2)   	(m/s^2)   	(rpm)     	(rpm)     	(kN)      	(kN)      	(kN)      	(kN)      	(kN·m)    	(kN·m)    	(kN·m)    	(kN·m)    	(kN·m)    	(kN·m)    	(kN·m)    	(kN·m)    	(kN·m)    	(kN·m)    	(kN·m)    	(kW)      	(kN·m)    	(kW)      
    5.0000	 1.200E+01	 0.000E+00	 0.000E+00	 2.801E-02	 6.755E-03	-1.173E-02	 1.756E-01	 1.756E-01	 3.276E+00	-3.135E-01	 2.888E+00	 1.262E-01	-1.004E+00	 1.548E+01	-2.161E-01	 3.918E+00	 3.518E-02	 3.458E+00	-3.241E-01	 7.952E+00	-7.265E-01	 1.563E-03	 0.000E+00	 6.469E-04	 0.000E+00	 0.000E+00
    5.0400	 1.200E+01	 0.000E+00	 0.000E+00	 2.993E-02	 7.635E-03	-6.640E-03	 1.761E-01	 1.761E-01	 3.284E+00	-3.170E-01	 2.898E+00	 1.288E-01	-1.015E+00	 1.554E+01	-2.132E-01	 3.937E+00	 3.744E-02	 3.442E+00	-3.313E-01	 7.936E+00	-7.385E-01	 1.664E-03	 0.000E+00	 6.902E-04	 0.000E+00	 0.000E+00
    5.0800	 1.200E+01	 0.000E+00	 0.000E+00	 2.983E-02	 8.191E-03	-4.480E-03	 1.765E-01	 1.765E-01	 3.292E+00	-3.204E-01	 2.908E+00	 1.316E-01	-1.028E+00	 1.560E+01	-2.102E-01	 3.951E+00	 3.733E-02	 3.426E+00	-3.375E-01	 7.920E+00	-7.495E-01	 1.659E-03	 0.000E+00	 6.902E-04	 0.000E+00	 0.000E+00
    5.1200	 1.200E+01	 0.000E+00	 0.000E+00	 2.867E-02	 8.495E-03	-5.398E-03	 1.770E-01	 1.770E-01	 3.299E+00	-3.237E-01	 2.918E+00	 1.345E-01	-1.043E+00	 1.564E+01	-2.071E-01	 3.956E+00	 3.415E-02	 3.410E+00	-3.421E-01	 7.904E+00	-7.589E-01	 1.518E-03	 0.000E+00	 6.329E-04	 0.000E+00	 0.000E+00
    5.1600	 1.200E+01	 0.000E+00	 0.000E+00	 2.603E-02	 8.525E-03	-9.297E-03	 1.774E-01	 1.774E-01	 3.306E+00	-3.268E-01	 2.928E+00	 1.376E-01	-1.058E+00	 1.567E+01	-2.039E-01	 3.956E+00	 2.838E-02	 3.395E+00	-3.454E-01	 7.888E+00	-7.671E-01	 1.261E-03	 0.000E+00	 5.271E-04	 0.000E+00	 0.000E+00
    5.2000	 1.200E+01	 0.000E+00	 0.000E+00	 2.042E-02	 8.187E-03	-1.584E-02	 1.777E-01	 1.777E-01	 3.315E+00	-3.300E-01	 2.938E+00	 1.407E-01	-1.075E+00	 1.569E+01	-2.006E-01	 3.954E+00	 2.147E-02	 3.380E+00	-3.482E-01	 7.873E+00	-7.747E-01	 9.542E-04	 0.000E+00	 3.995E-04	 0.000E+00	 0.000E+00
    5.2400	 1.200E+01	 0.000E+00	 0.000E+00	 1.007E-02	 7.381E-03	-2.451E-02	 1.779E-01	 1.779E-01	 3.325E+00	-3.333E-01	 2.951E+00	 1.437E-01	-1.091E+00	 1.573E+01	-1.976E-01	 3.956E+00	 1.524E-02	 3.366E+00	-3.513E-01	 7.858E+00	-7.827E-01	 6.775E-04	 0.000E+00	 2.841E-04	 0.000E+00	 0.000E+00
    5.2800	 1.200E+01	 0.000E+00	 0.000E+00	-6.146E-03	 6.060E-03	-3.464E-02	 1.781E-01	 1.781E-01	 3.339E+00	-3.367E-01	 2.967E+00	 1.466E-01	-1.106E+00	 1.580E+01	-1.951E-01	 3.966E+00	 1.121E-02	 3.353E+00	-3.556E-01	 7.846E+00	-7.920E-01	 4.983E-04	 0.000E+00	 2.091E-04	 0.000E+00	 0.000E+00
    5.3200	 1.200E+01	 0.000E+00	 0.000E+00	-2.802E-02	 4.286E-03	-4.553E-02	 1.782E-01	 1.782E-01	 3.355E+00	-3.404E-01	 2.986E+00	 1.494E-01	-1.120E+00	 1.589E+01	-1.931E-01	 3.988E+00	 1.004E-02	 3.341E+00	-3.614E-01	 7.834E+00	-8.029E-01	 4.463E-04	 0.000E+00	 1.874E-04	 0.000E+00	 0.000E+00
    5.3600	 1.200E+01	 0.000E+00	 0.000E+00	-5.379E-02	 2.235E-03	-5.648E-02	 1.784E-01	 1.784E-01	 3.375E+00	-3.442E-01	 3.007E+00	 1.520E-01	-1.133E+00	 1.600E+01	-1.914E-01	 4.017E+00	 1.136E-02	 3.330E+00	-3.686E-01	 7.824E+00	-8.151E-01	 5.051E-04	 0.000E+00	 2.123E-04	 0.000E+00	 0.000E+00
    5.4000	 1.200E+01	 0.000E+00	 0.000E+00	-8.047E-02	 1.699E-04	-6.685E-02	 1.786E-01	 1.785E-01	 3.395E+00	-3.482E-01	 3.029E+00	 1.546E-01	-1.145E+00	 1.612E+01	-1.900E-01	 4.052E+00	 1.395E-02	 3.320E+00	-3.765E-01	 7.816E+00	-8.282E-01	 6.199E-04	 0.000E+00	 2.608E-04	 0.000E+00	 0.000E+00
    5.4400	 1.200E+01	 0.000E+00	 0.000E+00	-1.046E-01	-1.617E-03	-7.606E-02	 1.787E-01	 1.787E-01	 3.414E+00	-3.521E-01	 3.049E+00	 1.571E-01	-1.157E+00	 1.623E+01	-1.884E-01	 4.084E+00	 1.618E-02	 3.311E+00	-3.841E-01	 7.807E+00	-8.410E-01	 7.191E-04	 0.000E+00	 3.028E-04	 0.000E+00	 0.000E+00
    5.4800	 1.200E+01	 0.000E+00	 0.000E+00	-1.231E-01	-2.876E-03	-8.363E-02	 1.789E-01	 1.789E-01	 3.430E+00	-3.558E-01	 3.067E+00	 1.598E-01	-1.170E+00	 1.632E+01	-1.865E-01	 4.109E+00	 1.664E-02	 3.302E+00	-3.909E-01	 7.800E+00	-8.530E-01	 7.394E-04	 0.000E+00	 3.118E-04	 0.000E+00	 0.000E+00
    5.5200	 1.200E+01	 0.000E+00	 0.000E+00	-1.342E-01	-3.450E-03	-8.913E-02	 1.791E-01	 1.791E-01	 3.442E+00	-3.594E-01	 3.081E+00	 1.626E-01	-1.185E+00	 1.639E+01	-1.841E-01	 4.125E+00	 1.458E-02	 3.294E+00	-3.962E-01	 7.791E+00	-8.635E-01	 6.478E-04	 0.000E+00	 2.734E-04	 0.000E+00	 0.000E+00
    5.5600	 1.200E+01	 0.000E+00	 0.000E+00	-1.374E-01	-3.306E-03	-9.225E-02	 1.793E-01	 1.793E-01	 3.451E+00	-3.628E-01	 3.091E+00	 1.656E-01	-1.200E+00	 1.643E+01	-1.811E-01	 4.130E+00	 1.013E-02	 3.285E+00	-4.001E-01	 7.783E+00	-8.726E-01	 4.502E-04	 0.000E+00	 1.902E-04	 0.000E+00	 0.000E+00
    5.6000	 1.200E+01	 0.000E+00	 0.000E+00	-1.339E-01	-2.516E-03	-9.276E-02	 1.794E-01	 1.794E-01	 3.456E+00	-3.660E-01	 3.098E+00	 1.687E-01	-1.216E+00	 1.644E+01	-1.776E-01	 4.128E+00	 4.198E-03	 3.277E+00	-4.032E-01	 7.774E+00	-8.808E-01	 1.866E-04	 0.000E+00	 7.887E-05	 0.000E+00	 0.000E+00
    5.6400	 1.200E+01	 0.000E+00	 0.000E+00	-1.254E-01	-1.223E-03	-9.057E-02	 1.794E-01	 1.794E-01	 3.459E+00	-3.692E-01	 3.102E+00	 1.719E-01	-1.232E+00	 1.644E+01	-1.738E-01	 4.123E+00	-1.922E-03	 3.269E+00	-4.061E-01	 7.765E+00	-8.888E-01	-8.541E-05	 0.000E+00	-3.611E-05	 0.000E+00	 0.000E+00
    5.6800	 1.200E+01	 0.000E+00	 0.000E+00	-1.142E-01	 4.131E-04	-8.575E-02	 1.793E-01	 1.794E-01	 3.461E+00	-3.723E-01	 3.106E+00	 1.750E-01	-1.247E+00	 1.645E+01	-1.699E-01	 4.120E+00	-7.037E-03	 3.260E+00	-4.096E-01	 7.755E+00	-8.974E-01	-3.128E-04	 0.000E+00	-1.322E-04	 0.000E+00	 0.000E+00
    5.7200	 1.200E+01	 0.000E+00	 0.000E+00	-1.016E-01	 2.259E-03	-7.854E-02	 1.792E-01	 1.792E-01	 3.462E+00	-3.756E-01	 3.109E+00	 1.780E-01	-1.262E+00	 1.646E+01	-1.660E-01	 4.120E+00	-1.046E-02	 3.251E+00	-4.141E-01	 7.745E+00	-9.069E-01	-4.651E-04	 0.000E+00	-1.964E-04	 0.000E+00	 0.000E+00
    5.7600	 1.200E+01	 0.000E+00	 0.000E+00	-8.845E-02	 4.236E-03	-6.937E-02	 1.791E-01	 1.791E-01	 3.464E+00	-3.789E-01	 3.112E+00	 1.810E-01	-1.275E+00	 1.647E+01	-1.622E-01	 4.124E+00	-1.224E-02	 3.241E+00	-4.195E-01	 7.735E+00	-9.173E-01	-5.440E-04	 0.000E+00	-2.295E-04	 0.000E+00	 0.000E+00
    5.8000	 1.200E+01	 0.000E+00	 0.000E+00	-7.471E-02	 6.313E-03	-5.881E-02	 1.789E-01	 1.789E-01	 3.465E+00	-3.822E-01	 3.115E+00	 1.839E-01	-1.288E+00	 1.649E+01	-1.584E-01	 4.131E+00	-1.305E-02	 3.231E+00	-4.256E-01	 7.723E+00	-9.282E-01	-5.799E-04	 0.000E+00	-2.445E-04	 0.000E+00	 0.000E+00
    5.8400	 1.200E+01	 0.000E+00	 0.000E+00	-5.992E-02	 8.485E-03	-4.755E-02	 1.788E-01	 1.788E-01	 3.466E+00	-3.855E-01	 3.118E+00	 1.868E-01	-1.301E+00	 1.651E+01	-1.546E-01	 4.136E+00	-1.392E-02	 3.220E+00	-4.317E-01	 7.711E+00	-9.390E-01	-6.189E-04	 0.000E+00	-2.607E-04	 0.000E+00	 0.000E+00
    5.8800	 1.200E+01	 0.000E+00	 0.000E+00	-4.375E-02	 1.074E-02	-3.631E-02	 1.786E-01	 1.786E-01	 3.466E+00	-3.887E-01	 3.120E+00	 1.897E-01	-1.314E+00	 1.652E+01	-1.506E-01	 4.139E+00	-1.585E-02	 3.208E+00	-4.372E-01	 7.698E+00	-9.493E-01	-7.045E-04	 0.000E+00	-2.964E-04	 0.000E+00	 0.000E+00
    5.9200	 1.200E+01	 0.000E+00	 0.000E+00	-2.641E-02	 1.301E-02	-2.580E-02	 1.783E-01	 1.784E-01	 3.464E+00	-3.917E-01	 3.120E+00	 1.927E-01	-1.328E+00	 1.652E+01	-1.465E-01	 4.136E+00	-1.939E-02	 3.195E+00	-4.418E-01	 7.684E+00	-9.585E-01	-8.617E-04	 0.000E+00	-3.621E-04	 0.000E+00	 0.000E+00
    5.9600	 1.200E+01	 0.000E+00	 0.000E+00	-8.936E-03	 1.521E-02	-1.665E-02	 1.780E-01	 1.781E-01	 3.462E+00	-3.947E-01	 3.120E+00	 1.958E-01	-1.343E+00	 1.651E+01	-1.422E-01	 4.128E+00	-2.449E-02	 3.182E+00	-4.455E-01	 7.670E+00	-9.668E-01	-1.088E-03	 0.000E+00	-4.567E-04	 0.000E+00	 0.000E+00
    6.0000	 1.200E+01	 0.000E+00	 0.000E+00	 6.991E-03	 1.719E-02	-9.347E-03	 1.777E-01	 1.777E-01	 3.461E+00	-3.977E-01	 3.121E+00	 1.990E-01	-1.358E+00	 1.650E+01	-1.378E-01	 4.119E+00	-3.054E-02	 3.168E+00	-4.487E-01	 7.654E+00	-9.744E-01	-1.357E-03	 0.000E+00	-5.684E-04	-1.104E+01	-3.045E+03
    6.0400	 1.200E+01	 0.000E+00	 0.000E+00	 1.097E-01	-2.726E+01	-9.452E-02	 1.791E+00	 2.457E+00	 4.687E+00	 1.023E+01	 4.350E+00	 1.265E+01	-8.890E+01	 2.473E+01	-2.432E+01	 3.821E+00	-1.636E+02	-4.227E+00	 9.550E+01	 7.708E+00	 9.457E+01	-7.270E+00	 0.000E+00	-4.208E+01	-1.130E+01	-3.046E+03
    6.0800	 1.200E+01	 0.000E+00	 0.000E+00	 6.314E+00	-2.910E+01	-6.064E-01	 3.344E+00	 3.374E+00	 3.517E+00	 1.114E+01	 3.254E+00	 1.347E+01	-9.559E+01	 1.814E+01	-2.559E+01	 3.178E+00	-1.751E+02	-5.875E+00	 1.032E+02	 7.552E+00	 1.025E+02	-7.781E+00	 0.000E+00	-6.186E+01	-1.141E+01	-3.046E+03
    6.1200	 1.200E+01	 0.000E+00	 0.000E+00	 3.399E+00	-2.130E+01	-1.307E+00	 5.117E+00	 4.884E+00	 3.293E+00	 7.629E+00	 3.084E+00	 9.035E+00	-5.866E+01	 1.410E+01	-1.531E+01	 1.487E+00	-1.111E+02	-3.896E+00	 6.605E+01	 7.485E+00	 6.544E+01	-4.937E+00	 0.000E+00	-5.682E+01	-1.160E+01	-3.045E+03
    6.1600	 1.200E+01	 0.000E+00	 0.000E+00	 5.699E-01	-2.113E+01	-2.236E+00	 6.809E+00	 6.848E+00	 3.605E+00	 7.444E+00	 3.333E+00	 9.833E+00	-6.489E+01	 1.445E+01	-1.639E+01	 1.560E-03	-1.185E+02	-6.345E+00	 6.974E+01	 7.221E+00	 6.882E+01	-5.268E+00	 0.000E+00	-8.500E+01	-1.184E+01	-3.043E+03
    6.2000	 1.200E+01	 0.000E+00	 0.000E+00	 5.827E+00	-2.378E+01	-3.456E+00	 8.475E+00	 8.574E+00	 2.795E+00	 8.601E+00	 2.521E+00	 1.203E+01	-8.302E+01	 1.103E+01	-1.923E+01	-7.833E-02	-1.448E+02	-1.149E+01	 8.457E+01	 6.650E+00	 8.402E+01	-6.435E+00	 0.000E+00	-1.300E+02	-1.205E+01	-3.040E+03
    6.2400	 1.200E+01	 0.000E+00	 0.000E+00	 5.409E+00	-2.551E+01	-4.849E+00	 1.019E+01	 1.019E+01	 3.013E+00	 9.085E+00	 2.896E+00	 1.175E+01	-8.005E+01	 1.330E+01	-1.997E+01	 4.346E-01	-1.442E+02	-1.555E+01	 8.486E+01	 6.196E+00	 8.518E+01	-6.410E+00	 0.000E+00	-1.539E+02	-1.226E+01	-3.035E+03
    6.2800	 1.200E+01	 0.000E+00	 0.000E+00	 2.882E+00	-2.526E+01	-6.765E+00	 1.198E+01	 1.195E+01	 3.633E+00	 8.631E+00	 3.687E+00	 1.131E+01	-7.481E+01	 1.826E+01	-1.951E+01	 1.380E+00	-1.369E+02	-1.928E+01	 7.965E+01	 5.441E+00	 8.059E+01	-6.085E+00	 0.000E+00	-1.713E+02	-1.248E+01	-3.029E+03
    6.3200	 1.200E+01	 0.000E+00	 0.000E+00	 4.722E+00	-2.411E+01	-9.036E+00	 1.379E+01	 1.381E+01	 3.503E+00	 7.910E+00	 3.668E+00	 1.234E+01	-8.214E+01	 2.016E+01	-1.797E+01	 2.774E+00	-1.401E+02	-2.462E+01	 7.805E+01	 4.274E+00	 7.992E+01	-6.226E+00	 0.000E+00	-2.026E+02	-1.272E+01	-3.020E+03
    6.3600	 1.200E+01	 0.000E+00	 0.000E+00	 4.910E+00	-2.548E+01	-1.131E+01	 1.561E+01	 1.565E+01	 3.709E+00	 8.192E+00	 4.059E+00	 1.314E+01	-8.816E+01	 2.376E+01	-1.870E+01	 3.790E+00	-1.483E+02	-3.218E+01	 7.985E+01	 3.039E+00	 8.403E+01	-6.591E+00	 0.000E+00	-2.430E+02	-1.295E+01	-3.008E+03
    6.4000	 1.200E+01	 0.000E+00	 0.000E+00	 4.546E+00	-2.808E+01	-1.417E+01	 1.745E+01	 1.747E+01	 3.962E+00	 8.959E+00	 4.585E+00	 1.309E+01	-8.630E+01	 2.723E+01	-2.117E+01	 4.065E+00	-1.528E+02	-4.061E+01	 7.966E+01	 1.376E+00	 8.733E+01	-6.793E+00	 0.000E+00	-2.796E+02	-1.318E+01	-2.993E+03
    6.4400	 1.200E+01	 0.000E+00	 0.000E+00	 6.591E+00	-2.849E+01	-1.786E+01	 1.930E+01	 1.932E+01	 3.545E+00	 8.863E+00	 4.428E+00	 1.350E+01	-8.771E+01	 2.687E+01	-2.138E+01	 3.696E+00	-1.552E+02	-4.850E+01	 7.514E+01	-9.806E-01	 8.687E+01	-6.900E+00	 0.000E+00	-3.140E+02	-1.340E+01	-2.975E+03
    6.4800	 1.200E+01	 0.000E+00	 0.000E+00	 7.730E+00	-2.839E+01	-2.182E+01	 2.115E+01	 2.118E+01	 3.121E+00	 8.503E+00	 4.277E+00	 1.451E+01	-9.483E+01	 2.614E+01	-2.051E+01	 2.706E+00	-1.613E+02	-5.715E+01	 6.973E+01	-3.714E+00	 8.693E+01	-7.170E+00	 0.000E+00	-3.578E+02	-1.362E+01	-2.952E+03
    6.5200	 1.200E+01	 0.000E+00	 0.000E+00	 8.699E+00	-3.039E+01	-2.609E+01	 2.296E+01	 2.300E+01	 2.783E+00	 8.994E+00	 4.344E+00	 1.520E+01	-9.889E+01	 2.611E+01	-2.178E+01	 1.515E+00	-1.704E+02	-6.759E+01	 6.459E+01	-6.782E+00	 8.980E+01	-7.574E+00	 0.000E+00	-4.104E+02	-1.382E+01	-2.924E+03
    6.5600	 1.200E+01	 0.000E+00	 0.000E+00	 1.135E+01	-3.287E+01	-3.126E+01	 2.473E+01	 2.477E+01	 2.220E+00	 9.741E+00	 4.245E+00	 1.540E+01	-9.878E+01	 2.572E+01	-2.398E+01	 6.000E-01	-1.777E+02	-7.744E+01	 5.642E+01	-1.041E+01	 9.162E+01	-7.900E+00	 0.000E+00	-4.610E+02	-1.400E+01	-2.891E+03
    6.6000	 1.200E+01	 0.000E+00	 0.000E+00	 1.295E+01	-3.382E+01	-3.724E+01	 2.645E+01	 2.649E+01	 1.839E+00	 9.792E+00	 4.328E+00	 1.612E+01	-1.032E+02	 2.712E+01	-2.425E+01	 1.477E-01	-1.851E+02	-8.496E+01	 4.434E+01	-1.459E+01	 9.064E+01	-8.225E+00	 0.000E+00	-5.133E+02	-1.414E+01	-2.853E+03
    6.6400	 1.200E+01	 0.000E+00	 0.000E+00	 1.389E+01	-3.466E+01	-4.363E+01	 2.811E+01	 2.815E+01	 1.653E+00	 9.741E+00	 4.750E+00	 1.700E+01	-1.093E+02	 3.038E+01	-2.396E+01	 3.035E-01	-1.932E+02	-9.021E+01	 2.984E+01	-1.902E+01	 8.855E+01	-8.585E+00	 0.000E+00	-5.694E+02	-1.426E+01	-2.809E+03
    6.6800	 1.200E+01	 0.000E+00	 0.000E+00	 1.642E+01	-3.674E+01	-5.062E+01	 2.969E+01	 2.973E+01	 1.329E+00	 1.033E+01	 5.244E+00	 1.727E+01	-1.106E+02	 3.361E+01	-2.558E+01	 9.189E-01	-2.015E+02	-9.355E+01	 1.411E+01	-2.362E+01	 8.693E+01	-8.956E+00	 0.000E+00	-6.274E+02	-1.433E+01	-2.759E+03
    6.7200	 1.200E+01	 0.000E+00	 0.000E+00	 1.963E+01	-3.851E+01	-5.846E+01	 3.119E+01	 3.123E+01	 8.195E-01	 1.091E+01	 5.617E+00	 1.737E+01	-1.106E+02	 3.567E+01	-2.731E+01	 1.367E+00	-2.089E+02	-9.281E+01	-2.898E+00	-2.824E+01	 8.374E+01	-9.286E+00	 0.000E+00	-6.833E+02	-1.436E+01	-2.705E+03
    6.7600	 1.200E+01	 0.000E+00	 0.000E+00	 2.254E+01	-3.901E+01	-6.696E+01	 3.262E+01	 3.265E+01	 1.468E-01	 1.103E+01	 5.717E+00	 1.754E+01	-1.117E+02	 3.563E+01	-2.758E+01	 9.714E-01	-2.138E+02	-8.616E+01	-2.018E+01	-3.268E+01	 7.749E+01	-9.504E+00	 0.000E+00	-7.311E+02	-1.435E+01	-2.645E+03
    6.8000	 1.200E+01	 0.000E+00	 0.000E+00	 2.572E+01	-3.936E+01	-7.581E+01	 3.399E+01	 3.401E+01	-7.238E-01	 1.119E+01	 5.425E+00	 1.744E+01	-1.107E+02	 3.308E+01	-2.787E+01	-4.557E-01	-2.169E+02	-7.506E+01	-3.573E+01	-3.674E+01	 6.996E+01	-9.641E+00	 0.000E+00	-7.725E+02	-1.429E+01	-2.579E+03
    6.8400	 1.200E+01	 0.000E+00	 0.000E+00	 2.905E+01	-3.984E+01	-8.507E+01	 3.531E+01	 3.531E+01	-1.699E+00	 1.152E+01	 4.946E+00	 1.698E+01	-1.071E+02	 2.896E+01	-2.858E+01	-2.478E+00	-2.183E+02	-6.040E+01	-4.835E+01	-4.042E+01	 6.175E+01	-9.702E+00	 0.000E+00	-8.072E+02	-1.418E+01	-2.508E+03
    6.8800	 1.200E+01	 0.000E+00	 0.000E+00	 3.240E+01	-3.926E+01	-9.476E+01	 3.659E+01	 3.658E+01	-2.732E+00	 1.148E+01	 4.409E+00	 1.646E+01	-1.036E+02	 2.410E+01	-2.816E+01	-4.335E+00	-2.162E+02	-4.192E+01	-5.661E+01	-4.359E+01	 5.168E+01	-9.607E+00	 0.000E+00	-8.281E+02	-1.401E+01	-2.428E+03
    6.9200	 1.200E+01	 0.000E+00	 0.000E+00	 3.545E+01	-3.755E+01	-1.046E+02	 3.788E+01	 3.785E+01	-3.586E+00	 1.106E+01	 3.944E+00	 1.584E+01	-9.994E+01	 1.991E+01	-2.674E+01	-5.506E+00	-2.101E+02	-2.145E+01	-5.929E+01	-4.596E+01	 4.038E+01	-9.339E+00	 0.000E+00	-8.328E+02	-1.378E+01	-2.339E+03
    6.9600	 1.200E+01	 0.000E+00	 0.000E+00	 3.765E+01	-3.581E+01	-1.143E+02	 3.917E+01	 3.913E+01	-4.057E+00	 1.069E+01	 3.792E+00	 1.488E+01	-9.376E+01	 1.777E+01	-2.562E+01	-5.672E+00	-2.011E+02	-2.026E+00	-5.646E+01	-4.731E+01	 2.960E+01	-8.937E+00	 0.000E+00	-8.240E+02	-1.347E+01	-2.238E+03
    7.0000	 1.200E+01	 0.000E+00	 0.000E+00	 3.924E+01	-3.426E+01	-1.243E+02	 4.051E+01	 4.045E+01	-4.171E+00	 1.026E+01	 3.698E+00	 1.370E+01	-8.610E+01	 1.730E+01	-2.388E+01	-4.993E+00	-1.885E+02	 1.476E+01	-4.859E+01	-4.760E+01	 1.952E+01	-8.376E+00	 0.000E+00	-7.983E+02	-1.305E+01	-2.120E+03
    7.0400	 1.200E+01	 0.000E+00	 0.000E+00	 3.949E+01	-3.168E+01	-1.344E+02	 4.190E+01	 4.182E+01	-3.919E+00	 9.373E+00	 3.685E+00	 1.245E+01	-7.865E+01	 1.824E+01	-2.079E+01	-3.783E+00	-1.711E+02	 2.773E+01	-3.667E+01	-4.698E+01	 1.010E+01	-7.605E+00	 0.000E+00	-7.493E+02	-1.249E+01	-1.981E+03
    7.0800	 1.200E+01	 0.000E+00	 0.000E+00	 3.949E+01	-2.845E+01	-1.443E+02	 4.332E+01	 4.323E+01	-3.493E+00	 8.637E+00	 3.823E+00	 1.079E+01	-6.874E+01	 1.960E+01	-1.893E+01	-2.154E+00	-1.525E+02	 3.495E+01	-2.353E+01	-4.529E+01	 3.360E+00	-6.780E+00	 0.000E+00	-6.906E+02	-1.176E+01	-1.819E+03
    7.1200	 1.200E+01	 0.000E+00	 0.000E+00	 3.969E+01	-2.606E+01	-1.539E+02	 4.473E+01	 4.465E+01	-2.846E+00	 8.371E+00	 3.909E+00	 8.739E+00	-5.611E+01	 2.103E+01	-1.837E+01	-4.594E-01	-1.347E+02	 3.654E+01	-1.145E+01	-4.245E+01	-2.693E-01	-5.988E+00	 0.000E+00	-6.299E+02	-1.086E+01	-1.636E+03
    7.1600	 1.200E+01	 0.000E+00	 0.000E+00	 3.962E+01	-2.153E+01	-1.628E+02	 4.610E+01	 4.601E+01	-2.299E+00	 7.882E+00	 4.037E+00	 6.604E+00	-4.388E+01	 2.169E+01	-1.825E+01	 1.455E+00	-1.162E+02	 3.370E+01	-1.363E+00	-3.846E+01	-1.925E+00	-5.166E+00	 0.000E+00	-5.601E+02	-9.791E+00	-1.439E+03
    7.2000	 1.200E+01	 0.000E+00	 0.000E+00	 3.925E+01	-1.923E+01	-1.707E+02	 4.735E+01	 4.727E+01	-1.470E+00	 7.915E+00	 4.165E+00	 4.401E+00	-3.121E+01	 2.269E+01	-1.823E+01	 3.410E+00	-1.004E+02	 2.760E+01	 5.113E+00	-3.316E+01	-1.343E+00	-4.463E+00	 0.000E+00	-4.971E+02	-8.621E+00	-1.237E+03
    7.2400	 1.200E+01	 0.000E+00	 0.000E+00	 3.831E+01	-1.699E+01	-1.784E+02	 4.852E+01	 4.842E+01	-4.651E-01	 7.244E+00	 4.137E+00	 2.659E+00	-2.145E+01	 2.407E+01	-1.437E+01	 5.568E+00	-7.922E+01	 2.001E+01	 8.497E+00	-2.698E+01	-3.596E-01	-3.521E+00	 0.000E+00	-4.016E+02	-7.386E+00	-1.037E+03
    7.2800	 1.200E+01	 0.000E+00	 0.000E+00	 3.499E+01	-1.294E+01	-1.848E+02	 4.958E+01	 4.948E+01	 1.070E+00	 5.963E+00	 4.255E+00	 1.309E+00	-1.463E+01	 2.842E+01	-9.825E+00	 7.969E+00	-5.714E+01	 1.241E+01	 8.489E+00	-2.011E+01	 1.027E+00	-2.540E+00	 0.000E+00	-2.961E+02	-6.077E+00	-8.361E+02
    7.3200	 1.200E+01	 0.000E+00	 0.000E+00	 3.123E+01	-1.097E+01	-1.901E+02	 5.049E+01	 5.042E+01	 2.978E+00	 5.891E+00	 4.777E+00	-7.110E-01	-1.867E+00	 3.578E+01	-1.017E+01	 1.087E+01	-4.160E+01	 7.486E+00	 4.222E+00	-1.308E+01	 5.013E+00	-1.849E+00	 0.000E+00	-2.196E+02	-4.800E+00	-6.491E+02
    7.3600	 1.200E+01	 0.000E+00	 0.000E+00	 2.814E+01	-1.001E+01	-1.951E+02	 5.123E+01	 5.117E+01	 4.824E+00	 6.143E+00	 5.327E+00	-2.618E+00	 1.077E+01	 4.346E+01	-1.163E+01	 1.381E+01	-2.967E+01	 5.558E+00	-1.324E+00	-6.310E+00	 9.323E+00	-1.319E+00	 0.000E+00	-1.590E+02	-3.672E+00	-4.903E+02
    7.4000	 1.200E+01	 0.000E+00	 0.000E+00	 2.381E+01	-7.012E+00	-1.995E+02	 5.183E+01	 5.178E+01	 6.317E+00	 5.332E+00	 5.550E+00	-3.203E+00	 1.380E+01	 4.872E+01	-9.767E+00	 1.597E+01	-1.887E+01	 4.426E+00	-5.601E+00	 6.797E-02	 1.060E+01	-8.385E-01	 0.000E+00	-1.023E+02	-2.712E+00	-3.592E+02
    7.4400	 1.200E+01	 0.000E+00	 0.000E+00	 2.122E+01	-3.877E+00	-2.028E+02	 5.229E+01	 5.225E+01	 6.787E+00	 4.466E+00	 5.044E+00	-3.251E+00	 1.367E+01	 4.805E+01	-7.563E+00	 1.688E+01	-1.132E+01	 4.603E+00	-9.244E+00	 5.916E+00	 1.056E+01	-5.030E-01	 0.000E+00	-6.192E+01	-1.924E+00	-2.541E+02
    7.4800	 1.200E+01	 0.000E+00	 0.000E+00	 2.044E+01	-2.302E+00	-2.054E+02	 5.262E+01	 5.260E+01	 6.441E+00	 4.205E+00	 3.987E+00	-3.491E+00	 1.585E+01	 4.210E+01	-7.190E+00	 1.600E+01	-7.265E+00	 7.034E+00	-1.210E+01	 1.111E+01	 1.097E+01	-3.229E-01	 0.000E+00	-4.001E+01	-1.327E+00	-1.760E+02
    7.5200	 1.200E+01	 0.000E+00	 0.000E+00	 1.924E+01	-9.831E-01	-2.079E+02	 5.286E+01	 5.284E+01	 5.786E+00	 3.810E+00	 2.779E+00	-3.513E+00	 1.664E+01	 3.356E+01	-6.484E+00	 1.349E+01	-3.927E+00	 1.019E+01	-1.334E+01	 1.535E+01	 1.069E+01	-1.745E-01	 0.000E+00	-2.173E+01	-8.950E-01	-1.202E+02
    7.5600	 1.200E+01	 0.000E+00	 0.000E+00	 1.853E+01	 6.493E-01	-2.099E+02	 5.304E+01	 5.302E+01	 4.936E+00	 3.010E+00	 1.473E+00	-3.130E+00	 1.442E+01	 2.410E+01	-4.750E+00	 1.035E+01	-6.075E-01	 1.294E+01	-1.310E+01	 1.849E+01	 9.277E+00	-2.700E-02	 0.000E+00	-3.373E+00	-5.709E-01	-7.875E+01
    7.6000	 1.200E+01	 0.000E+00	 0.000E+00	 1.845E+01	 1.408E+00	-2.114E+02	 5.318E+01	 5.316E+01	 4.142E+00	 2.384E+00	 4.033E-01	-2.868E+00	 1.367E+01	 1.657E+01	-3.678E+00	 7.748E+00	 2.498E+00	 1.561E+01	-1.122E+01	 2.050E+01	 8.089E+00	 1.110E-01	 0.000E+00	 1.391E+01	-3.197E-01	-4.684E+01
    7.6400	 1.200E+01	 0.000E+00	 0.000E+00	 1.820E+01	 1.344E+00	-2.125E+02	 5.330E+01	 5.328E+01	 3.837E+00	 1.847E+00	 4.344E-04	-2.847E+00	 1.527E+01	 1.383E+01	-3.200E+00	 6.438E+00	 6.989E+00	 1.746E+01	-7.795E+00	 2.135E+01	 7.233E+00	 3.106E-01	 0.000E+00	 3.899E+01	-1.017E-01	-1.930E+01
    7.6800	 1.200E+01	 0.000E+00	 0.000E+00	 1.789E+01	 1.511E+00	-2.133E+02	 5.343E+01	 5.340E+01	 4.051E+00	 9.405E-01	 2.792E-01	-2.637E+00	 1.536E+01	 1.622E+01	-1.965E+00	 6.769E+00	 1.287E+01	 1.738E+01	-4.257E+00	 2.105E+01	 5.545E+00	 5.718E-01	 0.000E+00	 7.195E+01	 1.261E-01	 9.313E+00
    7.7200	 1.200E+01	 0.000E+00	 0.000E+00	 1.812E+01	 1.868E+00	-2.135E+02	 5.356E+01	 5.353E+01	 4.570E+00	-2.195E-01	 1.079E+00	-2.172E+00	 1.338E+01	 2.239E+01	-2.666E-01	 8.573E+00	 1.846E+01	 1.572E+01	-1.621E+00	 1.980E+01	 2.988E+00	 8.203E-01	 0.000E+00	 1.035E+02	 3.682E-01	 3.956E+01
    7.7600	 1.200E+01	 0.000E+00	 0.000E+00	 1.941E+01	 1.940E+00	-2.134E+02	 5.368E+01	 5.366E+01	 5.151E+00	-1.344E+00	 2.208E+00	-1.691E+00	 1.151E+01	 3.022E+01	 1.039E+00	 1.121E+01	 2.342E+01	 1.333E+01	 2.015E-02	 1.785E+01	 2.533E-01	 1.041E+00	 0.000E+00	 1.316E+02	 6.075E-01	 6.928E+01
    7.8000	 1.200E+01	 0.000E+00	 0.000E+00	 2.153E+01	 1.985E+00	-2.130E+02	 5.380E+01	 5.378E+01	 5.598E+00	-2.488E+00	 3.341E+00	-1.141E+00	 9.301E+00	 3.734E+01	 2.274E+00	 1.374E+01	 2.786E+01	 1.092E+01	 4.135E-01	 1.546E+01	-2.687E+00	 1.238E+00	 0.000E+00	 1.569E+02	 8.358E-01	 9.747E+01
    7.8400	 1.200E+01	 0.000E+00	 0.000E+00	 2.378E+01	 2.220E+00	-2.127E+02	 5.390E+01	 5.388E+01	 5.780E+00	-3.666E+00	 4.177E+00	-4.334E-01	 5.861E+00	 4.214E+01	 3.690E+00	 1.538E+01	 3.119E+01	 9.201E+00	-3.159E-01	 1.282E+01	-5.868E+00	 1.386E+00	 0.000E+00	 1.760E+02	 1.042E+00	 1.228E+02
    7.8800	 1.200E+01	 0.000E+00	 0.000E+00	 2.584E+01	 2.329E+00	-2.124E+02	 5.398E+01	 5.397E+01	 5.658E+00	-4.673E+00	 4.612E+00	 2.625E-01	 2.504E+00	 4.414E+01	 4.794E+00	 1.584E+01	 3.316E+01	 8.274E+00	-1.396E+00	 9.951E+00	-8.708E+00	 1.474E+00	 0.000E+00	 1.874E+02	 1.210E+00	 1.433E+02
    7.9200	 1.200E+01	 0.000E+00	 0.000E+00	 2.772E+01	 2.202E+00	-2.124E+02	 5.404E+01	 5.403E+01	 5.275E+00	-5.420E+00	 4.716E+00	 8.313E-01	-4.617E-02	 4.378E+01	 5.497E+00	 1.534E+01	 3.416E+01	 7.950E+00	-2.405E+00	 6.831E+00	-1.089E+01	 1.518E+00	 0.000E+00	 1.933E+02	 1.333E+00	 1.584E+02
    7.9600	 1.200E+01	 0.000E+00	 0.000E+00	 2.938E+01	 2.120E+00	-2.127E+02	 5.408E+01	 5.408E+01	 4.743E+00	-6.000E+00	 4.654E+00	 1.338E+00	-2.572E+00	 4.211E+01	 6.181E+00	 1.445E+01	 3.446E+01	 8.264E+00	-3.258E+00	 3.579E+00	-1.259E+01	 1.532E+00	 0.000E+00	 1.951E+02	 1.416E+00	 1.685E+02
    8.0000	 1.200E+01	 0.000E+00	 0.000E+00	 3.072E+01	 2.171E+00	-2.130E+02	 5.410E+01	 5.410E+01	 4.191E+00	-6.409E+00	 4.563E+00	 1.767E+00	-4.973E+00	 4.025E+01	 6.866E+00	 1.372E+01	 3.428E+01	 9.084E+00	-3.659E+00	 3.851E-01	-1.378E+01	 1.523E+00	 0.000E+00	 1.942E+02	 1.464E+00	 1.742E+02
    8.0400	 1.200E+01	 0.000E+00	 0.000E+00	 3.184E+01	 2.147E+00	-2.135E+02	 5.411E+01	 5.411E+01	 3.731E+00	-6.539E+00	 4.515E+00	 1.956E+00	-6.041E+00	 3.898E+01	 7.197E+00	 1.342E+01	 3.403E+01	 9.895E+00	-3.394E+00	-2.564E+00	-1.412E+01	 1.512E+00	 0.000E+00	 1.928E+02	 1.486E+00	 1.770E+02
    8.0800	 1.200E+01	 0.000E+00	 0.000E+00	 3.252E+01	 1.987E+00	-2.140E+02	 5.412E+01	 5.412E+01	 3.482E+00	-6.389E+00	 4.574E+00	 1.846E+00	-5.460E+00	 3.882E+01	 7.077E+00	 1.352E+01	 3.394E+01	 1.034E+01	-2.611E+00	-5.142E+00	-1.358E+01	 1.509E+00	 0.000E+00	 1.924E+02	 1.496E+00	 1.782E+02
    8.1200	 1.200E+01	 0.000E+00	 0.000E+00	 3.265E+01	 1.831E+00	-2.146E+02	 5.412E+01	 5.412E+01	 3.435E+00	-6.038E+00	 4.724E+00	 1.497E+00	-3.734E+00	 3.956E+01	 6.731E+00	 1.383E+01	 3.413E+01	 1.035E+01	-1.583E+00	-7.299E+00	-1.235E+01	 1.517E+00	 0.000E+00	 1.934E+02	 1.503E+00	 1.790E+02
    8.1600	 1.200E+01	 0.000E+00	 0.000E+00	 3.265E+01	 1.724E+00	-2.151E+02	 5.413E+01	 5.413E+01	 3.471E+00	-5.502E+00	 4.877E+00	 9.263E-01	-9.691E-01	 4.044E+01	 6.198E+00	 1.421E+01	 3.457E+01	 9.884E+00	-5.940E-01	-8.997E+00	-1.047E+01	 1.537E+00	 0.000E+00	 1.960E+02	 1.513E+00	 1.803E+02
    8.2000	 1.200E+01	 0.000E+00	 0.000E+00	 3.266E+01	 1.605E+00	-2.156E+02	 5.414E+01	 5.413E+01	 3.517E+00	-4.770E+00	 4.986E+00	 1.363E-01	 2.920E+00	 4.097E+01	 5.398E+00	 1.447E+01	 3.512E+01	 8.963E+00	 5.784E-02	-1.017E+01	-7.966E+00	 1.561E+00	 0.000E+00	 1.991E+02	 1.529E+00	 1.822E+02
    8.2400	 1.200E+01	 0.000E+00	 0.000E+00	 3.260E+01	 1.521E+00	-2.160E+02	 5.415E+01	 5.414E+01	 3.563E+00	-3.900E+00	 5.025E+00	-8.017E-01	 7.534E+00	 4.097E+01	 4.434E+00	 1.448E+01	 3.569E+01	 7.839E+00	 2.273E-01	-1.078E+01	-5.019E+00	 1.586E+00	 0.000E+00	 2.023E+02	 1.549E+00	 1.846E+02
    8.2800	 1.200E+01	 0.000E+00	 0.000E+00	 3.240E+01	 1.514E+00	-2.164E+02	 5.416E+01	 5.416E+01	 3.620E+00	-2.961E+00	 4.991E+00	-1.815E+00	 1.245E+01	 4.056E+01	 3.429E+00	 1.426E+01	 3.624E+01	 6.806E+00	-8.693E-02	-1.085E+01	-1.846E+00	 1.611E+00	 0.000E+00	 2.055E+02	 1.571E+00	 1.873E+02
    8.3200	 1.200E+01	 0.000E+00	 0.000E+00	 3.207E+01	 1.544E+00	-2.166E+02	 5.417E+01	 5.417E+01	 3.711E+00	-1.985E+00	 4.927E+00	-2.871E+00	 1.761E+01	 4.011E+01	 2.362E+00	 1.393E+01	 3.679E+01	 6.110E+00	-8.248E-01	-1.042E+01	 1.435E+00	 1.635E+00	 0.000E+00	 2.087E+02	 1.594E+00	 1.901E+02
    8.3600	 1.200E+01	 0.000E+00	 0.000E+00	 3.165E+01	 1.615E+00	-2.167E+02	 5.418E+01	 5.418E+01	 3.861E+00	-1.026E+00	 4.887E+00	-3.916E+00	 2.278E+01	 3.998E+01	 1.264E+00	 1.370E+01	 3.736E+01	 5.919E+00	-1.769E+00	-9.533E+00	 4.646E+00	 1.660E+00	 0.000E+00	 2.120E+02	 1.618E+00	 1.930E+02
    8.4000	 1.200E+01	 0.000E+00	 0.000E+00	 3.114E+01	 1.789E+00	-2.168E+02	 5.419E+01	 5.419E+01	 4.078E+00	-1.663E-01	 4.894E+00	-4.865E+00	 2.746E+01	 4.032E+01	 2.713E-01	 1.366E+01	 3.792E+01	 6.234E+00	-2.597E+00	-8.253E+00	 7.543E+00	 1.685E+00	 0.000E+00	 2.152E+02	 1.643E+00	 1.960E+02
    8.4400	 1.200E+01	 0.000E+00	 0.000E+00	 3.054E+01	 2.059E+00	-2.168E+02	 5.421E+01	 5.420E+01	 4.350E+00	 5.482E-01	 4.940E+00	-5.666E+00	 3.139E+01	 4.111E+01	-5.629E-01	 1.381E+01	 3.844E+01	 6.920E+00	-3.091E+00	-6.644E+00	 9.972E+00	 1.709E+00	 0.000E+00	 2.182E+02	 1.668E+00	 1.990E+02
    8.4800	 1.200E+01	 0.000E+00	 0.000E+00	 2.991E+01	 2.371E+00	-2.168E+02	 5.422E+01	 5.422E+01	 4.639E+00	 1.103E+00	 4.991E+00	-6.295E+00	 3.450E+01	 4.206E+01	-1.244E+00	 1.404E+01	 3.887E+01	 7.799E+00	-3.141E+00	-4.802E+00	 1.186E+01	 1.728E+00	 0.000E+00	 2.207E+02	 1.691E+00	 2.017E+02
    8.5200	 1.200E+01	 0.000E+00	 0.000E+00	 2.931E+01	 2.704E+00	-2.169E+02	 5.423E+01	 5.423E+01	 4.891E+00	 1.479E+00	 5.006E+00	-6.722E+00	 3.663E+01	 4.284E+01	-1.722E+00	 1.424E+01	 3.915E+01	 8.643E+00	-2.703E+00	-2.839E+00	 1.313E+01	 1.740E+00	 0.000E+00	 2.223E+02	 1.710E+00	 2.041E+02
    8.5600	 1.200E+01	 0.000E+00	 0.000E+00	 2.881E+01	 3.039E+00	-2.170E+02	 5.423E+01	 5.423E+01	 5.062E+00	 1.665E+00	 4.960E+00	-6.927E+00	 3.763E+01	 4.316E+01	-1.951E+00	 1.432E+01	 3.924E+01	 9.224E+00	-1.840E+00	-8.551E-01	 1.372E+01	 1.744E+00	 0.000E+00	 2.228E+02	 1.725E+00	 2.059E+02
    8.6000	 1.200E+01	 0.000E+00	 0.000E+00	 2.847E+01	 3.317E+00	-2.171E+02	 5.424E+01	 5.424E+01	 5.135E+00	 1.671E+00	 4.847E+00	-6.916E+00	 3.757E+01	 4.291E+01	-1.956E+00	 1.427E+01	 3.911E+01	 9.402E+00	-7.303E-01	 1.069E+00	 1.368E+01	 1.738E+00	 0.000E+00	 2.222E+02	 1.733E+00	 2.068E+02
    8.6400	 1.200E+01	 0.000E+00	 0.000E+00	 2.829E+01	 3.486E+00	-2.173E+02	 5.424E+01	 5.424E+01	 5.126E+00	 1.510E+00	 4.679E+00	-6.710E+00	 3.658E+01	 4.220E+01	-1.770E+00	 1.407E+01	 3.883E+01	 9.138E+00	 4.215E-01	 2.866E+00	 1.305E+01	 1.726E+00	 0.000E+00	 2.205E+02	 1.733E+00	 2.068E+02
    8.6800	 1.200E+01	 0.000E+00	 0.000E+00	 2.819E+01	 3.525E+00	-2.174E+02	 5.423E+01	 5.423E+01	 5.073E+00	 1.191E+00	 4.491E+00	-6.332E+00	 3.476E+01	 4.130E+01	-1.404E+00	 1.380E+01	 3.847E+01	 8.459E+00	 1.430E+00	 4.467E+00	 1.189E+01	 1.710E+00	 0.000E+00	 2.185E+02	 1.726E+00	 2.060E+02
    8.7200	 1.200E+01	 0.000E+00	 0.000E+00	 2.813E+01	 3.440E+00	-2.175E+02	 5.423E+01	 5.423E+01	 5.014E+00	 7.218E-01	 4.327E+00	-5.805E+00	 3.222E+01	 4.052E+01	-8.724E-01	 1.355E+01	 3.812E+01	 7.448E+00	 2.138E+00	 5.808E+00	 1.027E+01	 1.694E+00	 0.000E+00	 2.165E+02	 1.715E+00	 2.047E+02
    8.7600	 1.200E+01	 0.000E+00	 0.000E+00	 2.815E+01	 3.270E+00	-2.174E+02	 5.422E+01	 5.422E+01	 4.968E+00	 1.102E-01	 4.220E+00	-5.147E+00	 2.906E+01	 4.006E+01	-1.915E-01	 1.341E+01	 3.785E+01	 6.244E+00	 2.412E+00	 6.843E+00	 8.222E+00	 1.682E+00	 0.000E+00	 2.149E+02	 1.703E+00	 2.032E+02
    8.8000	 1.200E+01	 0.000E+00	 0.000E+00	 2.825E+01	 3.079E+00	-2.173E+02	 5.422E+01	 5.422E+01	 4.940E+00	-6.368E-01	 4.179E+00	-4.371E+00	 2.532E+01	 3.997E+01	 6.361E-01	 1.342E+01	 3.770E+01	 5.041E+00	 2.163E+00	 7.545E+00	 5.792E+00	 1.676E+00	 0.000E+00	 2.141E+02	 1.692E+00	 2.019E+02