
FAST Summary File

Predictions were generated on 22-May-2014 at 09:48:15 using FAST (v8.07.00b-bjj, 15-May-2014), compiled for 32-bit systems using single precision
  compiled with
    NWTC Subroutine Library (v2.03.00d-bjj, 22-Jan-2014)
    ElastoDyn (v1.01.06a-bjj, 2-May-2014)
    ServoDyn (v1.01.02a-bjj, 31-Jan-2014)
    AeroDyn (v14.02.01b-bjj, 29-Jan-2014)
    InflowWind (v2.00.01a-bjj, 22-Jan-2014)
    HydroDyn (v2.00.05c-gjh, 15-May-2014)
    SubDyn (v1.00.00c-bjj, 20-May-2014)
    MAP (unknown version, unknown date) [not called]
    FEAMooring (unknown version, unknown date) [not called]
    IceFloe (unknown version, unknown date) [not called]


Modeling a fixed-bottom offshore turbine
Description from the FAST input file: 
  FAST Certification Test #21: NREL 5.0 MW Baseline Offshore Turbine with OC4 Jacket Configuration

Interpolation order for input/output time histories: 2 (quadratic)
Number of correction iterations:  0
Number of rows in Jacobian matrix used for coupling ElastoDyn, SubDyn, and HydroDyn:   9090


   Requested Time Steps  
  -------------------------------------------------
  Component          Time Step (s)    Subcycles (-)
  -----------------  ---------------  -------------
  FAST (glue code)    1.000E-02
  ElastoDyn           1.000E-02              1
  AeroDyn             1.000E-02              1
  ServoDyn            1.000E-02              1
  HydroDyn            1.000E-02              1
  SubDyn              1.000E-02              1
  FAST output files   5.000E-02              5^-1


   Requested Channels in FAST Output File(s)  
  --------------------------------------------
  Number  Name        Units       Generated by
  ------  ----------  ----------  ------------
       1  Time        (s)         FAST
       2  WindVxi     (m/s)       InflowWind
       3  WindVyi     (m/s)       InflowWind
       4  WindVzi     (m/s)       InflowWind
       5  OoPDefl1    (m)         ElastoDyn
       6  IPDefl1     (m)         ElastoDyn
       7  TwstDefl1   (deg)       ElastoDyn
       8  BldPitch1   (deg)       ElastoDyn
       9  Azimuth     (deg)       ElastoDyn
      10  RotSpeed    (rpm)       ElastoDyn
      11  GenSpeed    (rpm)       ElastoDyn
      12  TTDspFA     (m)         ElastoDyn
      13  TTDspSS     (m)         ElastoDyn
      14  TTDspTwst   (deg)       ElastoDyn
      15  Spn2MLxb1   (kN·m)      ElastoDyn
      16  Spn2MLyb1   (kN·m)      ElastoDyn
      17  RootFxc1    (kN)        ElastoDyn
      18  RootFyc1    (kN)        ElastoDyn
      19  RootFzc1    (kN)        ElastoDyn
      20  RootMxc1    (kN·m)      ElastoDyn
      21  RootMyc1    (kN·m)      ElastoDyn
      22  RootMzc1    (kN·m)      ElastoDyn
      23  RotTorq     (kN·m)      ElastoDyn
      24  LSSGagMya   (kN·m)      ElastoDyn
      25  LSSGagMza   (kN·m)      ElastoDyn
      26  YawBrFxp    (kN)        ElastoDyn
      27  YawBrFyp    (kN)        ElastoDyn
      28  YawBrFzp    (kN)        ElastoDyn
      29  YawBrMxp    (kN·m)      ElastoDyn
      30  YawBrMyp    (kN·m)      ElastoDyn
      31  YawBrMzp    (kN·m)      ElastoDyn
      32  TwrBsMxt    (kN·m)      ElastoDyn
      33  TwrBsMyt    (kN·m)      ElastoDyn
      34  TwrBsMzt    (kN·m)      ElastoDyn
      35  PtfmSurge   (m)         ElastoDyn
      36  PtfmSway    (m)         ElastoDyn
      37  PtfmHeave   (m)         ElastoDyn
      38  PtfmRoll    (deg)       ElastoDyn
      39  PtfmPitch   (deg)       ElastoDyn
      40  PtfmYaw     (deg)       ElastoDyn
      41  GenPwr      (kW)        ServoDyn
      42  GenTq       (kN·m)      ServoDyn
      43  Wave1Elev   (m)         HydroDyn
      44  -ReactFXss  (N)         SubDyn
      45  -ReactFYss  (N)         SubDyn
      46  -ReactMXss  (Nm)        SubDyn
      47  -ReactMYss  (Nm)        SubDyn
      48  -ReactMZss  (Nm)        SubDyn
      49  -ReactFZss  (N)         SubDyn
      50  M1N1FKZe    (N)         SubDyn
      51  M2N1FKZe    (N)         SubDyn
      52  -M3N1TDXss  (m)         SubDyn
      53  -M4N1TDYss  (m)         SubDyn
      54  -M5N1TDXss  (m)         SubDyn
      55  -M6N1TDYss  (m)         SubDyn
      56  M7N1FKZe    (N)         SubDyn
      57  -M7N1FKXe   (N)         SubDyn
      58  M8N1FKZe    (N)         SubDyn
      59  -M8N1FKYe   (N)         SubDyn
      60  M9N1FKZe    (N)         SubDyn
      61  M9N1FKZe    (N)         SubDyn
