
Predictions were generated on 27-Jul-2016 at 02:10:03 using FAST (v8.16.00a-bjj, 27-Jul-2016), compiled as a 32-bit application using single precision
 linked with  NWTC Subroutine Library (v2.09.00, 23-Jul-2016); ElastoDyn (v1.04.00a-bjj, 26-Jul-2016); InflowWind (v3.03.00, 26-Jul-2016); AeroDyn (v15.03.00, 27-Jul-2016); ServoDyn (v1.06.00a-bjj, 26-Jul-2016)

Description from the FAST input file: FAST Certification Test #10: UAE Phase VI (upwind) with no DOFs in a ramped wind.

Time      	Wind1VelX 	Wind1VelY 	Wind1VelZ 	RootFxc1  	RootFyc1  	RootFzc1  	RootFxc2  	RootFyc2  	RootFzc2  	RootMOoP1 	RootMIP1  	RootMzc1  	RotTorq   	RotThrust 	RotPwr    	LSSGagMya 	LSSGagMza 	YawBrMxp  	YawBrMyp  	RtAeroCp  	RtAeroCq  	RtAeroCt  	GenPwr    
(s)       	(m/s)     	(m/s)     	(m/s)     	(kN)      	(kN)      	(kN)      	(kN)      	(kN)      	(kN)      	(kN·m)    	(kN·m)    	(kN·m)    	(kN·m)    	(kN)      	(kW)      	(kN·m)    	(kN·m)    	(kN·m)    	(kN·m)    	(-)       	(-)       	(-)       	(kW)      
    5.0000	 5.000E+00	 0.000E+00	 0.000E+00	 3.630E-01	-1.567E-02	 6.857E+00	 3.630E-01	-7.865E-02	 8.058E+00	 1.123E+00	 7.111E-02	-1.662E-02	 2.908E-01	 7.260E-01	 2.189E+00	-1.703E+00	-8.924E-02	 2.908E-01	-7.461E+00	 3.539E-01	 4.673E-02	 5.867E-01	 3.407E+00
    5.1000	 5.100E+00	 0.000E+00	 0.000E+00	 3.774E-01	-4.386E-01	 6.998E+00	 3.774E-01	 3.371E-01	 7.918E+00	 1.164E+00	 7.981E-01	-1.686E-02	 3.118E-01	 7.548E-01	 2.348E+00	-1.304E+00	 1.099E+00	 3.118E-01	-7.441E+00	 3.576E-01	 4.816E-02	 5.863E-01	 3.407E+00
    5.2000	 5.200E+00	 0.000E+00	 0.000E+00	 3.920E-01	-6.520E-01	 7.387E+00	 3.920E-01	 5.430E-01	 7.528E+00	 1.206E+00	 1.166E+00	-1.712E-02	 3.337E-01	 7.840E-01	 2.513E+00	-1.995E-01	 1.693E+00	 3.337E-01	-7.421E+00	 3.610E-01	 4.958E-02	 5.857E-01	 3.407E+00
    5.3000	 5.300E+00	 0.000E+00	 0.000E+00	 4.068E-01	-5.425E-01	 7.815E+00	 4.068E-01	 4.257E-01	 7.100E+00	 1.248E+00	 9.820E-01	-1.740E-02	 3.565E-01	 8.135E-01	 2.684E+00	 1.012E+00	 1.372E+00	 3.565E-01	-7.400E+00	 3.643E-01	 5.098E-02	 5.851E-01	 3.407E+00
    5.4000	 5.400E+00	 0.000E+00	 0.000E+00	 4.217E-01	-1.714E-01	 8.049E+00	 4.217E-01	 4.659E-02	 6.866E+00	 1.291E+00	 3.498E-01	-1.767E-02	 3.802E-01	 8.434E-01	 2.863E+00	 1.677E+00	 3.090E-01	 3.802E-01	-7.380E+00	 3.673E-01	 5.238E-02	 5.843E-01	 3.407E+00
    5.5000	 5.500E+00	 0.000E+00	 0.000E+00	 4.368E-01	 2.584E-01	 7.964E+00	 4.368E-01	-3.917E-01	 6.951E+00	 1.334E+00	-3.829E-01	-1.795E-02	 4.047E-01	 8.736E-01	 3.047E+00	 1.435E+00	-9.212E-01	 4.047E-01	-7.359E+00	 3.700E-01	 5.375E-02	 5.835E-01	 3.407E+00
    5.6000	 5.600E+00	 0.000E+00	 0.000E+00	 4.520E-01	 5.124E-01	 7.605E+00	 4.520E-01	-6.543E-01	 7.310E+00	 1.377E+00	-8.144E-01	-1.821E-02	 4.301E-01	 9.041E-01	 3.239E+00	 4.171E-01	-1.653E+00	 4.301E-01	-7.338E+00	 3.726E-01	 5.510E-02	 5.824E-01	 3.407E+00
    5.7000	 5.700E+00	 0.000E+00	 0.000E+00	 4.674E-01	 4.508E-01	 7.166E+00	 4.674E-01	-6.018E-01	 7.749E+00	 1.421E+00	-7.056E-01	-1.845E-02	 4.563E-01	 9.347E-01	 3.436E+00	-8.262E-01	-1.492E+00	 4.563E-01	-7.316E+00	 3.748E-01	 5.642E-02	 5.812E-01	 3.407E+00
    5.8000	 5.800E+00	 0.000E+00	 0.000E+00	 4.827E-01	 1.046E-01	 6.885E+00	 4.827E-01	-2.648E-01	 8.030E+00	 1.464E+00	-1.092E-01	-1.865E-02	 4.833E-01	 9.655E-01	 3.639E+00	-1.623E+00	-5.235E-01	 4.833E-01	-7.295E+00	 3.768E-01	 5.771E-02	 5.798E-01	 3.407E+00
    5.9000	 5.900E+00	 0.000E+00	 0.000E+00	 4.981E-01	-3.415E-01	 6.914E+00	 4.981E-01	 1.719E-01	 8.002E+00	 1.508E+00	 6.584E-01	-1.881E-02	 5.110E-01	 9.963E-01	 3.847E+00	-1.542E+00	 7.276E-01	 5.110E-01	-7.274E+00	 3.784E-01	 5.897E-02	 5.782E-01	 3.407E+00
    6.0000	 6.000E+00	 0.000E+00	 0.000E+00	 5.135E-01	-6.490E-01	 7.236E+00	 5.135E-01	 4.697E-01	 7.679E+00	 1.552E+00	 1.189E+00	-1.890E-02	 5.393E-01	 1.027E+00	 4.061E+00	-6.277E-01	 1.585E+00	 5.393E-01	-7.252E+00	 3.798E-01	 6.018E-02	 5.763E-01	 3.407E+00
    6.1000	 6.100E+00	 0.000E+00	 0.000E+00	 5.288E-01	-6.542E-01	 7.679E+00	 5.288E-01	 4.650E-01	 7.237E+00	 1.595E+00	 1.201E+00	-1.892E-02	 5.682E-01	 1.058E+00	 4.278E+00	 6.261E-01	 1.586E+00	 5.682E-01	-7.231E+00	 3.808E-01	 6.134E-02	 5.742E-01	 3.407E+00
    6.2000	 6.200E+00	 0.000E+00	 0.000E+00	 5.440E-01	-3.570E-01	 8.001E+00	 5.440E-01	 1.576E-01	 6.914E+00	 1.639E+00	 6.964E-01	-1.886E-02	 5.977E-01	 1.088E+00	 4.500E+00	 1.541E+00	 7.293E-01	 5.977E-01	-7.210E+00	 3.815E-01	 6.246E-02	 5.718E-01	 3.407E+00
    6.3000	 6.300E+00	 0.000E+00	 0.000E+00	 5.591E-01	 7.930E-02	 8.030E+00	 5.591E-01	-2.889E-01	 6.885E+00	 1.682E+00	-4.666E-02	-1.874E-02	 6.278E-01	 1.118E+00	 4.727E+00	 1.623E+00	-5.218E-01	 6.278E-01	-7.189E+00	 3.819E-01	 6.354E-02	 5.692E-01	 3.407E+00
    6.4000	 6.400E+00	 0.000E+00	 0.000E+00	 5.742E-01	 4.159E-01	 7.750E+00	 5.742E-01	-6.360E-01	 7.166E+00	 1.724E+00	-6.190E-01	-1.857E-02	 6.583E-01	 1.148E+00	 4.957E+00	 8.277E-01	-1.491E+00	 6.583E-01	-7.169E+00	 3.820E-01	 6.456E-02	 5.664E-01	 3.407E+00
    6.5000	 6.500E+00	 0.000E+00	 0.000E+00	 5.891E-01	 4.681E-01	 7.311E+00	 5.891E-01	-6.989E-01	 7.604E+00	 1.767E+00	-7.043E-01	-1.836E-02	 6.894E-01	 1.178E+00	 5.191E+00	-4.154E-01	-1.654E+00	 6.894E-01	-7.148E+00	 3.818E-01	 6.555E-02	 5.634E-01	 3.407E+00
    6.6000	 6.600E+00	 0.000E+00	 0.000E+00	 6.040E-01	 2.048E-01	 6.952E+00	 6.040E-01	-4.463E-01	 7.964E+00	 1.809E+00	-2.492E-01	-1.811E-02	 7.208E-01	 1.208E+00	 5.427E+00	-1.434E+00	-9.227E-01	 7.208E-01	-7.127E+00	 3.814E-01	 6.648E-02	 5.602E-01	 3.407E+00
    6.7000	 6.700E+00	 0.000E+00	 0.000E+00	 6.185E-01	-2.346E-01	 6.866E+00	 6.185E-01	-1.777E-02	 8.049E+00	 1.850E+00	 5.073E-01	-1.785E-02	 7.525E-01	 1.237E+00	 5.666E+00	-1.677E+00	 3.072E-01	 7.525E-01	-7.107E+00	 3.806E-01	 6.734E-02	 5.567E-01	 3.407E+00
    6.8000	 6.800E+00	 0.000E+00	 0.000E+00	 6.326E-01	-6.153E-01	 7.100E+00	 6.326E-01	 3.522E-01	 7.815E+00	 1.890E+00	 1.163E+00	-1.758E-02	 7.840E-01	 1.265E+00	 5.903E+00	-1.014E+00	 1.371E+00	 7.840E-01	-7.088E+00	 3.793E-01	 6.811E-02	 5.528E-01	 3.407E+00
    6.9000	 6.900E+00	 0.000E+00	 0.000E+00	 6.460E-01	-7.344E-01	 7.527E+00	 6.460E-01	 4.608E-01	 7.388E+00	 1.928E+00	 1.372E+00	-1.731E-02	 8.150E-01	 1.292E+00	 6.136E+00	 1.978E-01	 1.694E+00	 8.150E-01	-7.069E+00	 3.774E-01	 6.877E-02	 5.482E-01	 3.407E+00
    7.0000	 7.000E+00	 0.000E+00	 0.000E+00	 6.584E-01	-5.303E-01	 7.917E+00	 6.584E-01	 2.464E-01	 6.998E+00	 1.964E+00	 1.026E+00	-1.703E-02	 8.452E-01	 1.317E+00	 6.364E+00	 1.302E+00	 1.101E+00	 8.452E-01	-7.052E+00	 3.748E-01	 6.929E-02	 5.429E-01	 3.407E+00
    7.1000	 7.100E+00	 0.000E+00	 0.000E+00	 6.700E-01	-1.160E-01	 8.058E+00	 6.700E-01	-1.778E-01	 6.857E+00	 1.997E+00	 3.210E-01	-1.675E-02	 8.747E-01	 1.340E+00	 6.586E+00	 1.703E+00	-8.746E-02	 8.747E-01	-7.036E+00	 3.717E-01	 6.970E-02	 5.370E-01	 3.407E+00
    7.2000	 7.200E+00	 0.000E+00	 0.000E+00	 6.809E-01	 2.816E-01	 7.875E+00	 6.809E-01	-5.851E-01	 7.040E+00	 2.029E+00	-3.558E-01	-1.647E-02	 9.036E-01	 1.362E+00	 6.804E+00	 1.183E+00	-1.228E+00	 9.036E-01	-7.021E+00	 3.682E-01	 7.002E-02	 5.307E-01	 3.407E+00
    7.3000	 7.300E+00	 0.000E+00	 0.000E+00	 6.914E-01	 4.449E-01	 7.466E+00	 6.914E-01	-7.582E-01	 7.449E+00	 2.060E+00	-6.315E-01	-1.617E-02	 9.324E-01	 1.383E+00	 7.020E+00	 2.321E-02	-1.705E+00	 9.324E-01	-7.006E+00	 3.646E-01	 7.029E-02	 5.242E-01	 3.407E+00
    7.4000	 7.400E+00	 0.000E+00	 0.000E+00	 7.015E-01	 2.830E-01	 7.052E+00	 7.015E-01	-6.061E-01	 7.863E+00	 2.090E+00	-3.503E-01	-1.587E-02	 9.613E-01	 1.403E+00	 7.238E+00	-1.149E+00	-1.260E+00	 9.613E-01	-6.992E+00	 3.608E-01	 7.052E-02	 5.176E-01	 3.407E+00
    7.5000	 7.500E+00	 0.000E+00	 0.000E+00	 7.113E-01	-1.193E-01	 6.858E+00	 7.113E-01	-2.137E-01	 8.057E+00	 2.119E+00	 3.425E-01	-1.556E-02	 9.904E-01	 1.423E+00	 7.457E+00	-1.700E+00	-1.338E-01	 9.904E-01	-6.979E+00	 3.571E-01	 7.073E-02	 5.109E-01	 3.407E+00
    7.6000	 7.600E+00	 0.000E+00	 0.000E+00	 7.208E-01	-5.471E-01	 6.988E+00	 7.208E-01	 2.042E-01	 7.928E+00	 2.147E+00	 1.079E+00	-1.523E-02	 1.020E+00	 1.442E+00	 7.676E+00	-1.332E+00	 1.065E+00	 1.020E+00	-6.966E+00	 3.533E-01	 7.091E-02	 5.042E-01	 3.407E+00
    7.7000	 7.700E+00	 0.000E+00	 0.000E+00	 7.297E-01	-7.718E-01	 7.372E+00	 7.297E-01	 4.191E-01	 7.544E+00	 2.174E+00	 1.468E+00	-1.492E-02	 1.048E+00	 1.459E+00	 7.893E+00	-2.438E-01	 1.688E+00	 1.048E+00	-6.953E+00	 3.493E-01	 7.103E-02	 4.973E-01	 3.407E+00
    7.8000	 7.800E+00	 0.000E+00	 0.000E+00	 7.381E-01	-6.744E-01	 7.802E+00	 7.381E-01	 3.123E-01	 7.113E+00	 2.200E+00	 1.305E+00	-1.464E-02	 1.076E+00	 1.476E+00	 8.105E+00	 9.761E-01	 1.398E+00	 1.076E+00	-6.942E+00	 3.450E-01	 7.107E-02	 4.902E-01	 3.407E+00
    7.9000	 7.900E+00	 0.000E+00	 0.000E+00	 7.462E-01	-3.102E-01	 8.046E+00	 7.462E-01	-6.121E-02	 6.869E+00	 2.225E+00	 6.849E-01	-1.441E-02	 1.104E+00	 1.492E+00	 8.313E+00	 1.668E+00	 3.528E-01	 1.104E+00	-6.930E+00	 3.406E-01	 7.106E-02	 4.831E-01	 3.407E+00
    8.0000	 8.000E+00	 0.000E+00	 0.000E+00	 7.544E-01	 1.214E-01	 7.972E+00	 7.544E-01	-5.020E-01	 6.943E+00	 2.249E+00	-5.006E-02	-1.424E-02	 1.132E+00	 1.509E+00	 8.520E+00	 1.459E+00	-8.833E-01	 1.132E+00	-6.919E+00	 3.362E-01	 7.103E-02	 4.763E-01	 3.407E+00
    8.1000	 8.100E+00	 0.000E+00	 0.000E+00	 7.628E-01	 3.843E-01	 7.620E+00	 7.628E-01	-7.743E-01	 7.295E+00	 2.273E+00	-4.965E-01	-1.412E-02	 1.159E+00	 1.526E+00	 8.728E+00	 4.603E-01	-1.642E+00	 1.159E+00	-6.907E+00	 3.318E-01	 7.097E-02	 4.698E-01	 3.407E+00
    8.2000	 8.200E+00	 0.000E+00	 0.000E+00	 7.713E-01	 3.341E-01	 7.180E+00	 7.713E-01	-7.334E-01	 7.735E+00	 2.297E+00	-4.068E-01	-1.405E-02	 1.187E+00	 1.543E+00	 8.935E+00	-7.868E-01	-1.513E+00	 1.187E+00	-6.896E+00	 3.274E-01	 7.090E-02	 4.635E-01	 3.407E+00
    8.3000	 8.300E+00	 0.000E+00	 0.000E+00	 7.795E-01	-4.555E-03	 6.890E+00	 7.795E-01	-4.038E-01	 8.025E+00	 2.320E+00	 1.768E-01	-1.403E-02	 1.214E+00	 1.559E+00	 9.139E+00	-1.609E+00	-5.658E-01	 1.214E+00	-6.884E+00	 3.229E-01	 7.078E-02	 4.572E-01	 3.407E+00
    8.4000	 8.400E+00	 0.000E+00	 0.000E+00	 7.873E-01	-4.510E-01	 6.907E+00	 7.873E-01	 3.384E-02	 8.008E+00	 2.342E+00	 9.449E-01	-1.405E-02	 1.240E+00	 1.575E+00	 9.336E+00	-1.561E+00	 6.870E-01	 1.240E+00	-6.874E+00	 3.182E-01	 7.059E-02	 4.508E-01	 3.407E+00
    8.5000	 8.500E+00	 0.000E+00	 0.000E+00	 7.943E-01	-7.661E-01	 7.222E+00	 7.943E-01	 3.407E-01	 7.694E+00	 2.361E+00	 1.488E+00	-1.411E-02	 1.265E+00	 1.589E+00	 9.523E+00	-6.690E-01	 1.568E+00	 1.265E+00	-6.864E+00	 3.133E-01	 7.032E-02	 4.442E-01	 3.407E+00
    8.6000	 8.600E+00	 0.000E+00	 0.000E+00	 8.007E-01	-7.818E-01	 7.664E+00	 8.007E-01	 3.486E-01	 7.251E+00	 2.379E+00	 1.518E+00	-1.419E-02	 1.288E+00	 1.601E+00	 9.701E+00	 5.843E-01	 1.602E+00	 1.288E+00	-6.855E+00	 3.081E-01	 6.998E-02	 4.374E-01	 3.407E+00
    8.7000	 8.700E+00	 0.000E+00	 0.000E+00	 8.063E-01	-4.917E-01	 7.995E+00	 8.063E-01	 5.117E-02	 6.921E+00	 2.395E+00	 1.025E+00	-1.425E-02	 1.311E+00	 1.613E+00	 9.871E+00	 1.522E+00	 7.694E-01	 1.311E+00	-6.847E+00	 3.028E-01	 6.958E-02	 4.304E-01	 3.407E+00
    8.8000	 8.800E+00	 0.000E+00	 0.000E+00	 8.115E-01	-5.482E-02	 8.035E+00	 8.115E-01	-3.929E-01	 6.880E+00	 2.409E+00	 2.801E-01	-1.428E-02	 1.333E+00	 1.623E+00	 1.003E+01	 1.636E+00	-4.792E-01	 1.333E+00	-6.840E+00	 2.975E-01	 6.913E-02	 4.234E-01	 3.407E+00
    8.9000	 8.900E+00	 0.000E+00	 0.000E+00	 8.163E-01	 2.908E-01	 7.763E+00	 8.163E-01	-7.456E-01	 7.152E+00	 2.422E+00	-3.086E-01	-1.429E-02	 1.354E+00	 1.633E+00	 1.019E+01	 8.665E-01	-1.469E+00	 1.354E+00	-6.833E+00	 2.921E-01	 6.865E-02	 4.164E-01	 3.407E+00
    9.0000	 9.000E+00	 0.000E+00	 0.000E+00	 8.208E-01	 3.563E-01	 7.326E+00	 8.208E-01	-8.180E-01	 7.589E+00	 2.435E+00	-4.180E-01	-1.433E-02	 1.374E+00	 1.642E+00	 1.035E+01	-3.720E-01	-1.664E+00	 1.374E+00	-6.827E+00	 2.867E-01	 6.815E-02	 4.094E-01	 3.407E+00
    9.1000	 9.100E+00	 0.000E+00	 0.000E+00	 8.253E-01	 1.045E-01	 6.960E+00	 8.253E-01	-5.728E-01	 7.955E+00	 2.447E+00	 1.592E-02	-1.442E-02	 1.394E+00	 1.651E+00	 1.050E+01	-1.409E+00	-9.599E-01	 1.394E+00	-6.821E+00	 2.814E-01	 6.762E-02	 4.027E-01	 3.407E+00
    9.2000	 9.200E+00	 0.000E+00	 0.000E+00	 8.294E-01	-3.302E-01	 6.863E+00	 8.294E-01	-1.444E-01	 8.052E+00	 2.458E+00	 7.631E-01	-1.454E-02	 1.413E+00	 1.659E+00	 1.064E+01	-1.685E+00	 2.632E-01	 1.413E+00	-6.815E+00	 2.760E-01	 6.707E-02	 3.959E-01	 3.407E+00
    9.3000	 9.300E+00	 0.000E+00	 0.000E+00	 8.331E-01	-7.145E-01	 7.087E+00	 8.331E-01	 2.340E-01	 7.828E+00	 2.469E+00	 1.424E+00	-1.463E-02	 1.431E+00	 1.666E+00	 1.078E+01	-1.049E+00	 1.344E+00	 1.431E+00	-6.810E+00	 2.707E-01	 6.648E-02	 3.892E-01	 3.407E+00
    9.4000	 9.400E+00	 0.000E+00	 0.000E+00	 8.360E-01	-8.420E-01	 7.512E+00	 8.360E-01	 3.564E-01	 7.403E+00	 2.477E+00	 1.645E+00	-1.463E-02	 1.447E+00	 1.672E+00	 1.090E+01	 1.534E-01	 1.698E+00	 1.447E+00	-6.806E+00	 2.651E-01	 6.580E-02	 3.823E-01	 3.407E+00
    9.5000	 9.500E+00	 0.000E+00	 0.000E+00	 8.386E-01	-6.446E-01	 7.907E+00	 8.386E-01	 1.559E-01	 7.008E+00	 2.485E+00	 1.309E+00	-1.482E-02	 1.459E+00	 1.677E+00	 1.099E+01	 1.273E+00	 1.134E+00	 1.459E+00	-6.803E+00	 2.589E-01	 6.494E-02	 3.754E-01	 3.407E+00
    9.6000	 9.600E+00	 0.000E+00	 0.000E+00	 8.414E-01	-2.294E-01	 8.059E+00	 8.414E-01	-2.596E-01	 6.856E+00	 2.492E+00	 6.010E-01	-1.551E-02	 1.465E+00	 1.683E+00	 1.103E+01	 1.705E+00	-4.286E-02	 1.465E+00	-6.799E+00	 2.519E-01	 6.385E-02	 3.689E-01	 3.407E+00
    9.7000	 9.700E+00	 0.000E+00	 0.000E+00	 8.443E-01	 1.793E-01	 7.886E+00	 8.443E-01	-6.653E-01	 7.029E+00	 2.500E+00	-9.601E-02	-1.675E-02	 1.464E+00	 1.689E+00	 1.102E+01	 1.215E+00	-1.197E+00	 1.464E+00	-6.795E+00	 2.440E-01	 6.251E-02	 3.626E-01	 3.407E+00
    9.8000	 9.800E+00	 0.000E+00	 0.000E+00	 8.475E-01	 3.621E-01	 7.482E+00	 8.475E-01	-8.403E-01	 7.434E+00	 2.508E+00	-4.059E-01	-1.861E-02	 1.453E+00	 1.695E+00	 1.094E+01	 6.784E-02	-1.704E+00	 1.453E+00	-6.790E+00	 2.349E-01	 6.079E-02	 3.566E-01	 3.407E+00
    9.9000	 9.900E+00	 0.000E+00	 0.000E+00	 8.509E-01	 2.228E-01	 7.064E+00	 8.509E-01	-6.872E-01	 7.851E+00	 2.516E+00	-1.639E-01	-2.084E-02	 1.431E+00	 1.702E+00	 1.077E+01	-1.116E+00	-1.290E+00	 1.431E+00	-6.786E+00	 2.243E-01	 5.865E-02	 3.508E-01	 3.407E+00
   10.0000	 1.000E+01	 0.000E+00	 0.000E+00	 8.540E-01	-1.619E-01	 6.859E+00	 8.540E-01	-2.876E-01	 8.056E+00	 2.523E+00	 4.981E-01	-2.294E-02	 1.406E+00	 1.708E+00	 1.058E+01	-1.696E+00	-1.782E-01	 1.406E+00	-6.781E+00	 2.138E-01	 5.647E-02	 3.450E-01	 3.407E+00
   10.1000	 1.010E+01	 0.000E+00	 0.000E+00	 8.569E-01	-5.819E-01	 6.978E+00	 8.569E-01	 1.446E-01	 7.937E+00	 2.530E+00	 1.220E+00	-2.470E-02	 1.385E+00	 1.714E+00	 1.043E+01	-1.359E+00	 1.030E+00	 1.385E+00	-6.777E+00	 2.045E-01	 5.456E-02	 3.394E-01	 3.407E+00
   10.2000	 1.020E+01	 0.000E+00	 0.000E+00	 8.596E-01	-8.067E-01	 7.356E+00	 8.596E-01	 3.793E-01	 7.559E+00	 2.537E+00	 1.607E+00	-2.610E-02	 1.368E+00	 1.719E+00	 1.030E+01	-2.879E-01	 1.681E+00	 1.368E+00	-6.773E+00	 1.961E-01	 5.283E-02	 3.338E-01	 3.407E+00
   10.3000	 1.030E+01	 0.000E+00	 0.000E+00	 8.622E-01	-7.124E-01	 7.789E+00	 8.622E-01	 2.919E-01	 7.126E+00	 2.543E+00	 1.447E+00	-2.710E-02	 1.356E+00	 1.724E+00	 1.021E+01	 9.392E-01	 1.423E+00	 1.356E+00	-6.770E+00	 1.888E-01	 5.136E-02	 3.284E-01	 3.407E+00
   10.4000	 1.040E+01	 0.000E+00	 0.000E+00	 8.647E-01	-3.486E-01	 8.043E+00	 8.647E-01	-6.891E-02	 6.872E+00	 2.548E+00	 8.250E-01	-2.783E-02	 1.351E+00	 1.729E+00	 1.018E+01	 1.658E+00	 3.963E-01	 1.351E+00	-6.766E+00	 1.828E-01	 5.020E-02	 3.230E-01	 3.407E+00
   10.5000	 1.050E+01	 0.000E+00	 0.000E+00	 8.671E-01	 8.939E-02	 7.980E+00	 8.671E-01	-5.068E-01	 6.935E+00	 2.554E+00	 7.501E-02	-2.847E-02	 1.351E+00	 1.734E+00	 1.017E+01	 1.481E+00	-8.449E-01	 1.351E+00	-6.763E+00	 1.775E-01	 4.923E-02	 3.178E-01	 3.407E+00
   10.6000	 1.060E+01	 0.000E+00	 0.000E+00	 8.697E-01	 3.655E-01	 7.635E+00	 8.697E-01	-7.842E-01	 7.280E+00	 2.560E+00	-3.985E-01	-2.916E-02	 1.353E+00	 1.739E+00	 1.018E+01	 5.031E-01	-1.629E+00	 1.353E+00	-6.760E+00	 1.727E-01	 4.836E-02	 3.127E-01	 3.407E+00
   10.7000	 1.070E+01	 0.000E+00	 0.000E+00	 8.723E-01	 3.304E-01	 7.194E+00	 8.723E-01	-7.512E-01	 7.721E+00	 2.566E+00	-3.398E-01	-2.989E-02	 1.354E+00	 1.745E+00	 1.020E+01	-7.470E-01	-1.533E+00	 1.354E+00	-6.756E+00	 1.682E-01	 4.752E-02	 3.078E-01	 3.407E+00
   10.8000	 1.080E+01	 0.000E+00	 0.000E+00	 8.752E-01	 3.000E-03	 6.895E+00	 8.752E-01	-4.259E-01	 8.020E+00	 2.573E+00	 2.193E-01	-3.071E-02	 1.356E+00	 1.750E+00	 1.021E+01	-1.593E+00	-6.077E-01	 1.356E+00	-6.752E+00	 1.637E-01	 4.669E-02	 3.032E-01	 3.407E+00
   10.9000	 1.090E+01	 0.000E+00	 0.000E+00	 8.785E-01	-4.403E-01	 6.901E+00	 8.785E-01	 1.554E-02	 8.014E+00	 2.579E+00	 9.764E-01	-3.165E-02	 1.356E+00	 1.757E+00	 1.021E+01	-1.578E+00	 6.459E-01	 1.356E+00	-6.747E+00	 1.593E-01	 4.584E-02	 2.988E-01	 3.407E+00
   11.0000	 1.100E+01	 0.000E+00	 0.000E+00	 8.823E-01	-7.602E-01	 7.207E+00	 8.823E-01	 3.338E-01	 7.708E+00	 2.587E+00	 1.522E+00	-3.270E-02	 1.355E+00	 1.765E+00	 1.020E+01	-7.098E-01	 1.550E+00	 1.355E+00	-6.742E+00	 1.549E-01	 4.500E-02	 2.946E-01	 3.407E+00
   11.1000	 1.110E+01	 0.000E+00	 0.000E+00	 8.863E-01	-7.845E-01	 7.649E+00	 8.863E-01	 3.564E-01	 7.266E+00	 2.594E+00	 1.561E+00	-3.381E-02	 1.354E+00	 1.773E+00	 1.020E+01	 5.422E-01	 1.617E+00	 1.354E+00	-6.736E+00	 1.506E-01	 4.416E-02	 2.907E-01	 3.407E+00
   11.2000	 1.120E+01	 0.000E+00	 0.000E+00	 8.908E-01	-5.003E-01	 7.987E+00	 8.908E-01	 7.056E-02	 6.928E+00	 2.603E+00	 1.072E+00	-3.500E-02	 1.353E+00	 1.782E+00	 1.019E+01	 1.501E+00	 8.089E-01	 1.353E+00	-6.730E+00	 1.465E-01	 4.333E-02	 2.869E-01	 3.407E+00
   11.3000	 1.130E+01	 0.000E+00	 0.000E+00	 8.956E-01	-6.172E-02	 8.039E+00	 8.956E-01	-3.695E-01	 6.876E+00	 2.612E+00	 3.188E-01	-3.629E-02	 1.351E+00	 1.791E+00	 1.017E+01	 1.648E+00	-4.362E-01	 1.351E+00	-6.724E+00	 1.424E-01	 4.250E-02	 2.834E-01	 3.407E+00
   11.4000	 1.140E+01	 0.000E+00	 0.000E+00	 9.008E-01	 2.936E-01	 7.777E+00	 9.008E-01	-7.263E-01	 7.138E+00	 2.621E+00	-2.925E-01	-3.767E-02	 1.348E+00	 1.802E+00	 1.015E+01	 9.046E-01	-1.445E+00	 1.348E+00	-6.717E+00	 1.384E-01	 4.168E-02	 2.800E-01	 3.407E+00
   11.5000	 1.150E+01	 0.000E+00	 0.000E+00	 9.061E-01	 3.732E-01	 7.342E+00	 9.061E-01	-8.075E-01	 7.573E+00	 2.630E+00	-4.318E-01	-3.909E-02	 1.346E+00	 1.812E+00	 1.013E+01	-3.283E-01	-1.673E+00	 1.346E+00	-6.709E+00	 1.346E-01	 4.088E-02	 2.768E-01	 3.407E+00
   11.6000	 1.160E+01	 0.000E+00	 0.000E+00	 9.118E-01	 1.336E-01	 6.969E+00	 9.118E-01	-5.696E-01	 7.946E+00	 2.640E+00	-2.454E-02	-4.054E-02	 1.343E+00	 1.824E+00	 1.011E+01	-1.384E+00	-9.965E-01	 1.343E+00	-6.701E+00	 1.309E-01	 4.010E-02	 2.738E-01	 3.407E+00
   11.7000	 1.170E+01	 0.000E+00	 0.000E+00	 9.177E-01	-2.961E-01	 6.861E+00	 9.177E-01	-1.415E-01	 8.054E+00	 2.650E+00	 7.079E-01	-4.204E-02	 1.340E+00	 1.835E+00	 1.009E+01	-1.691E+00	 2.190E-01	 1.340E+00	-6.693E+00	 1.273E-01	 3.933E-02	 2.709E-01	 3.407E+00
   11.8000	 1.180E+01	 0.000E+00	 0.000E+00	 9.239E-01	-6.839E-01	 7.075E+00	 9.239E-01	 2.448E-01	 7.840E+00	 2.661E+00	 1.368E+00	-4.363E-02	 1.336E+00	 1.848E+00	 1.006E+01	-1.084E+00	 1.316E+00	 1.336E+00	-6.685E+00	 1.237E-01	 3.855E-02	 2.681E-01	 3.407E+00
   11.9000	 1.190E+01	 0.000E+00	 0.000E+00	 9.300E-01	-8.206E-01	 7.496E+00	 9.300E-01	 3.802E-01	 7.419E+00	 2.671E+00	 1.598E+00	-4.526E-02	 1.331E+00	 1.860E+00	 1.002E+01	 1.089E-01	 1.702E+00	 1.331E+00	-6.676E+00	 1.201E-01	 3.776E-02	 2.653E-01	 3.407E+00
   12.0000	 1.200E+01	 0.000E+00	 0.000E+00	 9.361E-01	-6.328E-01	 7.896E+00	 9.361E-01	 1.909E-01	 7.019E+00	 2.680E+00	 1.273E+00	-4.690E-02	 1.326E+00	 1.872E+00	 9.982E+00	 1.243E+00	 1.167E+00	 1.326E+00	-6.668E+00	 1.167E-01	 3.699E-02	 2.627E-01	 3.407E+00
   12.1000	 1.210E+01	 0.000E+00	 0.000E+00	 9.424E-01	-2.224E-01	 8.059E+00	 9.424E-01	-2.211E-01	 6.856E+00	 2.690E+00	 5.658E-01	-4.853E-02	 1.321E+00	 1.885E+00	 9.946E+00	 1.705E+00	 1.778E-03	 1.321E+00	-6.659E+00	 1.134E-01	 3.624E-02	 2.601E-01	 3.407E+00
   12.2000	 1.220E+01	 0.000E+00	 0.000E+00	 9.489E-01	 1.882E-01	 7.897E+00	 9.489E-01	-6.336E-01	 7.018E+00	 2.700E+00	-1.416E-01	-5.018E-02	 1.317E+00	 1.898E+00	 9.913E+00	 1.245E+00	-1.165E+00	 1.317E+00	-6.650E+00	 1.103E-01	 3.553E-02	 2.576E-01	 3.407E+00
   12.3000	 1.230E+01	 0.000E+00	 0.000E+00	 9.558E-01	 3.767E-01	 7.497E+00	 9.558E-01	-8.240E-01	 7.418E+00	 2.712E+00	-4.685E-01	-5.187E-02	 1.312E+00	 1.912E+00	 9.878E+00	 1.124E-01	-1.701E+00	 1.312E+00	-6.640E+00	 1.072E-01	 3.484E-02	 2.553E-01	 3.407E+00
   12.4000	 1.240E+01	 0.000E+00	 0.000E+00	 9.631E-01	 2.405E-01	 7.076E+00	 9.631E-01	-6.898E-01	 7.839E+00	 2.724E+00	-2.399E-01	-5.361E-02	 1.307E+00	 1.926E+00	 9.842E+00	-1.081E+00	-1.318E+00	 1.307E+00	-6.630E+00	 1.043E-01	 3.415E-02	 2.531E-01	 3.407E+00
   12.5000	 1.250E+01	 0.000E+00	 0.000E+00	 9.705E-01	-1.471E-01	 6.861E+00	 9.705E-01	-3.042E-01	 8.054E+00	 2.737E+00	 4.191E-01	-5.538E-02	 1.302E+00	 1.941E+00	 9.805E+00	-1.691E+00	-2.226E-01	 1.302E+00	-6.620E+00	 1.014E-01	 3.348E-02	 2.510E-01	 3.407E+00
   12.6000	 1.260E+01	 0.000E+00	 0.000E+00	 9.782E-01	-5.773E-01	 6.969E+00	 9.782E-01	 1.239E-01	 7.947E+00	 2.750E+00	 1.151E+00	-5.715E-02	 1.297E+00	 1.956E+00	 9.764E+00	-1.386E+00	 9.936E-01	 1.297E+00	-6.609E+00	 9.861E-02	 3.281E-02	 2.490E-01	 3.407E+00
   12.7000	 1.270E+01	 0.000E+00	 0.000E+00	 9.860E-01	-8.178E-01	 7.341E+00	 9.860E-01	 3.624E-01	 7.575E+00	 2.763E+00	 1.557E+00	-5.894E-02	 1.291E+00	 1.972E+00	 9.717E+00	-3.318E-01	 1.673E+00	 1.291E+00	-6.599E+00	 9.584E-02	 3.214E-02	 2.470E-01	 3.407E+00
   12.8000	 1.280E+01	 0.000E+00	 0.000E+00	 9.939E-01	-7.393E-01	 7.776E+00	 9.939E-01	 2.820E-01	 7.140E+00	 2.777E+00	 1.417E+00	-6.072E-02	 1.283E+00	 1.988E+00	 9.664E+00	 9.016E-01	 1.447E+00	 1.283E+00	-6.588E+00	 9.309E-02	 3.147E-02	 2.451E-01	 3.407E+00
   12.9000	 1.290E+01	 0.000E+00	 0.000E+00	 1.002E+00	-3.847E-01	 8.039E+00	 1.002E+00	-7.446E-02	 6.876E+00	 2.790E+00	 8.043E-01	-6.248E-02	 1.276E+00	 2.004E+00	 9.606E+00	 1.648E+00	 4.396E-01	 1.276E+00	-6.577E+00	 9.040E-02	 3.080E-02	 2.433E-01	 3.407E+00
   13.0000	 1.300E+01	 0.000E+00	 0.000E+00	 1.010E+00	 5.378E-02	 7.988E+00	 1.010E+00	-5.148E-01	 6.927E+00	 2.804E+00	 4.764E-02	-6.422E-02	 1.268E+00	 2.020E+00	 9.548E+00	 1.503E+00	-8.058E-01	 1.268E+00	-6.565E+00	 8.779E-02	 3.014E-02	 2.415E-01	 3.407E+00
   13.1000	 1.310E+01	 0.000E+00	 0.000E+00	 1.018E+00	 3.384E-01	 7.650E+00	 1.018E+00	-8.016E-01	 7.265E+00	 2.818E+00	-4.459E-01	-6.593E-02	 1.260E+00	 2.036E+00	 9.489E+00	 5.456E-01	-1.616E+00	 1.260E+00	-6.554E+00	 8.528E-02	 2.950E-02	 2.397E-01	 3.407E+00
   13.2000	 1.320E+01	 0.000E+00	 0.000E+00	 1.026E+00	 3.149E-01	 7.208E+00	 1.026E+00	-7.802E-01	 7.707E+00	 2.832E+00	-4.118E-01	-6.762E-02	 1.253E+00	 2.053E+00	 9.431E+00	-7.066E-01	-1.552E+00	 1.253E+00	-6.543E+00	 8.284E-02	 2.888E-02	 2.380E-01	 3.407E+00
   13.3000	 1.330E+01	 0.000E+00	 0.000E+00	 1.034E+00	-4.723E-03	 6.901E+00	 1.034E+00	-4.629E-01	 8.014E+00	 2.846E+00	 1.290E-01	-6.930E-02	 1.244E+00	 2.069E+00	 9.370E+00	-1.577E+00	-6.492E-01	 1.244E+00	-6.531E+00	 8.046E-02	 2.826E-02	 2.363E-01	 3.407E+00
   13.4000	 1.340E+01	 0.000E+00	 0.000E+00	 1.043E+00	-4.482E-01	 6.895E+00	 1.043E+00	-2.168E-02	 8.020E+00	 2.861E+00	 8.817E-01	-7.097E-02	 1.236E+00	 2.086E+00	 9.306E+00	-1.594E+00	 6.044E-01	 1.236E+00	-6.520E+00	 7.814E-02	 2.765E-02	 2.346E-01	 3.407E+00
   13.5000	 1.350E+01	 0.000E+00	 0.000E+00	 1.051E+00	-7.764E-01	 7.193E+00	 1.051E+00	 3.042E-01	 7.722E+00	 2.876E+00	 1.437E+00	-7.261E-02	 1.227E+00	 2.103E+00	 9.241E+00	-7.502E-01	 1.531E+00	 1.227E+00	-6.508E+00	 7.588E-02	 2.705E-02	 2.331E-01	 3.407E+00
   13.6000	 1.360E+01	 0.000E+00	 0.000E+00	 1.060E+00	-8.124E-01	 7.634E+00	 1.060E+00	 3.380E-01	 7.281E+00	 2.892E+00	 1.491E+00	-7.422E-02	 1.218E+00	 2.120E+00	 9.171E+00	 4.997E-01	 1.630E+00	 1.218E+00	-6.496E+00	 7.366E-02	 2.645E-02	 2.315E-01	 3.407E+00
   13.7000	 1.370E+01	 0.000E+00	 0.000E+00	 1.069E+00	-5.374E-01	 7.980E+00	 1.069E+00	 6.094E-02	 6.936E+00	 2.908E+00	 1.013E+00	-7.580E-02	 1.208E+00	 2.137E+00	 9.094E+00	 1.479E+00	 8.479E-01	 1.208E+00	-6.484E+00	 7.145E-02	 2.585E-02	 2.301E-01	 3.407E+00
   13.8000	 1.380E+01	 0.000E+00	 0.000E+00	 1.077E+00	-1.005E-01	 8.043E+00	 1.077E+00	-3.778E-01	 6.872E+00	 2.923E+00	 2.573E-01	-7.737E-02	 1.196E+00	 2.155E+00	 9.005E+00	 1.659E+00	-3.929E-01	 1.196E+00	-6.472E+00	 6.922E-02	 2.523E-02	 2.286E-01	 3.407E+00
   13.9000	 1.390E+01	 0.000E+00	 0.000E+00	 1.086E+00	 2.616E-01	 7.790E+00	 1.086E+00	-7.413E-01	 7.125E+00	 2.938E+00	-3.710E-01	-7.894E-02	 1.182E+00	 2.171E+00	 8.903E+00	 9.421E-01	-1.421E+00	 1.182E+00	-6.461E+00	 6.697E-02	 2.459E-02	 2.271E-01	 3.407E+00
   14.0000	 1.400E+01	 0.000E+00	 0.000E+00	 1.094E+00	 3.528E-01	 7.357E+00	 1.094E+00	-8.337E-01	 7.558E+00	 2.951E+00	-5.359E-01	-8.052E-02	 1.167E+00	 2.188E+00	 8.790E+00	-2.844E-01	-1.681E+00	 1.167E+00	-6.449E+00	 6.472E-02	 2.393E-02	 2.255E-01	 3.407E+00
   14.1000	 1.410E+01	 0.000E+00	 0.000E+00	 1.102E+00	 1.233E-01	 6.979E+00	 1.102E+00	-6.052E-01	 7.936E+00	 2.964E+00	-1.519E-01	-8.209E-02	 1.152E+00	 2.203E+00	 8.672E+00	-1.357E+00	-1.032E+00	 1.152E+00	-6.438E+00	 6.250E-02	 2.327E-02	 2.239E-01	 3.407E+00
   14.2000	 1.420E+01	 0.000E+00	 0.000E+00	 1.109E+00	-3.031E-01	 6.859E+00	 1.109E+00	-1.799E-01	 8.056E+00	 2.976E+00	 5.693E-01	-8.365E-02	 1.136E+00	 2.219E+00	 8.555E+00	-1.696E+00	 1.747E-01	 1.136E+00	-6.428E+00	 6.036E-02	 2.264E-02	 2.223E-01	 3.407E+00
   14.3000	 1.430E+01	 0.000E+00	 0.000E+00	 1.117E+00	-6.963E-01	 7.063E+00	 1.117E+00	 2.121E-01	 7.852E+00	 2.989E+00	 1.234E+00	-8.516E-02	 1.121E+00	 2.235E+00	 8.443E+00	-1.118E+00	 1.287E+00	 1.121E+00	-6.417E+00	 5.833E-02	 2.203E-02	 2.208E-01	 3.407E+00
   14.4000	 1.440E+01	 0.000E+00	 0.000E+00	 1.125E+00	-8.440E-01	 7.480E+00	 1.125E+00	 3.584E-01	 7.435E+00	 3.003E+00	 1.478E+00	-8.660E-02	 1.108E+00	 2.251E+00	 8.340E+00	 6.428E-02	 1.704E+00	 1.108E+00	-6.406E+00	 5.642E-02	 2.146E-02	 2.193E-01	 3.407E+00
   14.5000	 1.450E+01	 0.000E+00	 0.000E+00	 1.134E+00	-6.668E-01	 7.885E+00	 1.134E+00	 1.796E-01	 7.030E+00	 3.018E+00	 1.167E+00	-8.792E-02	 1.095E+00	 2.267E+00	 8.242E+00	 1.212E+00	 1.199E+00	 1.095E+00	-6.394E+00	 5.462E-02	 2.091E-02	 2.178E-01	 3.407E+00
   14.6000	 1.460E+01	 0.000E+00	 0.000E+00	 1.142E+00	-2.609E-01	 8.059E+00	 1.142E+00	-2.281E-01	 6.856E+00	 3.033E+00	 4.637E-01	-8.915E-02	 1.082E+00	 2.284E+00	 8.150E+00	 1.705E+00	 4.641E-02	 1.082E+00	-6.383E+00	 5.291E-02	 2.040E-02	 2.165E-01	 3.407E+00
   14.7000	 1.470E+01	 0.000E+00	 0.000E+00	 1.150E+00	 1.539E-01	 7.908E+00	 1.150E+00	-6.447E-01	 7.008E+00	 3.050E+00	-2.541E-01	-9.032E-02	 1.071E+00	 2.301E+00	 8.065E+00	 1.276E+00	-1.132E+00	 1.071E+00	-6.371E+00	 5.129E-02	 1.991E-02	 2.151E-01	 3.407E+00
   14.8000	 1.480E+01	 0.000E+00	 0.000E+00	 1.159E+00	 3.526E-01	 7.513E+00	 1.159E+00	-8.455E-01	 7.402E+00	 3.066E+00	-6.018E-01	-9.149E-02	 1.061E+00	 2.318E+00	 7.988E+00	 1.569E-01	-1.698E+00	 1.061E+00	-6.359E+00	 4.978E-02	 1.946E-02	 2.138E-01	 3.407E+00
   14.9000	 1.490E+01	 0.000E+00	 0.000E+00	 1.167E+00	 2.275E-01	 7.088E+00	 1.167E+00	-7.225E-01	 7.827E+00	 3.082E+00	-3.948E-01	-9.272E-02	 1.051E+00	 2.334E+00	 7.913E+00	-1.047E+00	-1.346E+00	 1.051E+00	-6.348E+00	 4.832E-02	 1.902E-02	 2.124E-01	 3.407E+00
   15.0000	 1.500E+01	 0.000E+00	 0.000E+00	 1.175E+00	-1.544E-01	 6.863E+00	 1.175E+00	-3.427E-01	 8.052E+00	 3.097E+00	 2.521E-01	-9.402E-02	 1.041E+00	 2.350E+00	 7.839E+00	-1.684E+00	-2.667E-01	 1.041E+00	-6.337E+00	 4.692E-02	 1.859E-02	 2.110E-01	 3.407E+00
   15.1000	 1.510E+01	 0.000E+00	 0.000E+00	 1.183E+00	-5.872E-01	 6.960E+00	 1.183E+00	 8.809E-02	 7.956E+00	 3.111E+00	 9.859E-01	-9.536E-02	 1.031E+00	 2.366E+00	 7.764E+00	-1.411E+00	 9.570E-01	 1.031E+00	-6.326E+00	 4.556E-02	 1.817E-02	 2.096E-01	 3.407E+00
   15.2000	 1.520E+01	 0.000E+00	 0.000E+00	 1.191E+00	-8.374E-01	 7.325E+00	 1.191E+00	 3.364E-01	 7.590E+00	 3.126E+00	 1.407E+00	-9.669E-02	 1.021E+00	 2.381E+00	 7.686E+00	-3.754E-01	 1.663E+00	 1.021E+00	-6.315E+00	 4.422E-02	 1.775E-02	 2.082E-01	 3.407E+00
   15.3000	 1.530E+01	 0.000E+00	 0.000E+00	 1.198E+00	-7.702E-01	 7.762E+00	 1.198E+00	 2.674E-01	 7.153E+00	 3.140E+00	 1.285E+00	-9.795E-02	 1.011E+00	 2.396E+00	 7.609E+00	 8.634E-01	 1.470E+00	 1.011E+00	-6.305E+00	 4.292E-02	 1.734E-02	 2.068E-01	 3.407E+00
   15.4000	 1.540E+01	 0.000E+00	 0.000E+00	 1.206E+00	-4.227E-01	 8.035E+00	 1.206E+00	-8.216E-02	 6.881E+00	 3.155E+00	 6.831E-01	-9.912E-02	 1.001E+00	 2.412E+00	 7.539E+00	 1.635E+00	 4.826E-01	 1.001E+00	-6.294E+00	 4.170E-02	 1.696E-02	 2.054E-01	 3.407E+00
   15.5000	 1.550E+01	 0.000E+00	 0.000E+00	 1.214E+00	 1.676E-02	 7.995E+00	 1.214E+00	-5.239E-01	 6.920E+00	 3.171E+00	-7.549E-02	-1.002E-01	 9.938E-01	 2.427E+00	 7.483E+00	 1.523E+00	-7.662E-01	 9.938E-01	-6.283E+00	 4.060E-02	 1.662E-02	 2.041E-01	 3.407E+00
   15.6000	 1.560E+01	 0.000E+00	 0.000E+00	 1.221E+00	 3.099E-01	 7.665E+00	 1.221E+00	-8.197E-01	 7.250E+00	 3.187E+00	-5.828E-01	-1.013E-01	 9.888E-01	 2.443E+00	 7.445E+00	 5.877E-01	-1.601E+00	 9.888E-01	-6.273E+00	 3.962E-02	 1.632E-02	 2.028E-01	 3.407E+00
   15.7000	 1.570E+01	 0.000E+00	 0.000E+00	 1.229E+00	 2.974E-01	 7.223E+00	 1.229E+00	-8.104E-01	 7.692E+00	 3.203E+00	-5.659E-01	-1.023E-01	 9.866E-01	 2.458E+00	 7.428E+00	-6.657E-01	-1.570E+00	 9.866E-01	-6.262E+00	 3.878E-02	 1.608E-02	 2.015E-01	 3.407E+00
   15.8000	 1.580E+01	 0.000E+00	 0.000E+00	 1.237E+00	-1.476E-02	 6.907E+00	 1.237E+00	-5.019E-01	 8.008E+00	 3.219E+00	-3.529E-02	-1.034E-01	 9.867E-01	 2.474E+00	 7.429E+00	-1.559E+00	-6.903E-01	 9.867E-01	-6.251E+00	 3.805E-02	 1.588E-02	 2.002E-01	 3.407E+00