
Predictions were generated on 27-Jul-2016 at 02:09:39 using FAST (v8.16.00a-bjj, 27-Jul-2016), compiled as a 32-bit application using single precision
 linked with  NWTC Subroutine Library (v2.09.00, 23-Jul-2016); ElastoDyn (v1.04.00a-bjj, 26-Jul-2016); InflowWind (v3.03.00, 26-Jul-2016); AeroDyn (v15.03.00, 27-Jul-2016); ServoDyn (v1.06.00a-bjj, 26-Jul-2016)

Description from the FAST input file: FAST Certification Test #08: AOC 15/50 with many DOFs with fixed yaw error and steady wind. Many parameters are pure fiction.

Time      	Wind1VelX 	Wind1VelY 	Wind1VelZ 	LSSGagPxa 	TipDxb1   	TipDxb2   	TipDyb1   	TipDyb2   	RollDefl1 	RollDefl2 	PtchDefl1 	PtchDefl2 	Spn1ALxb1 	Spn1ALyb1 	HSShftV   	TTDspRoll 	TTDspPtch 	YawBrRVxp 	YawBrRVyp 	YawBrRAxp 	YawBrRAyp 	RootFxb1  	RootFyb1  	Spn2MLxb1 	Spn2MLyb1 	LSShftFya 	LSShftFza 	YawBrFxn  	YawBrFyn  	RtSpeed   	RtSkew    	B1N1Theta 	B1N2Theta 	B1N3Theta 	B1N4Theta 	B1N1AxInd 	B1N2AxInd 	B1N3AxInd 	B1N4AxInd 	B1N1Alpha 	B1N2Alpha 	B1N3Alpha 	B1N4Alpha 	B1N1Vrel  	B1N2Vrel  	B1N3Vrel  	B1N4Vrel  	B1N1Cl    	B1N2Cl    	B1N3Cl    	B1N4Cl    	B1N1Cd    	B1N2Cd    	B1N3Cd    	B1N4Cd    	B1N1Cm    	B1N2Cm    	B1N3Cm    	B1N4Cm    
(s)       	(m/s)     	(m/s)     	(m/s)     	(deg)     	(m)       	(m)       	(m)       	(m)       	(deg)     	(deg)     	(deg)     	(deg)     	(m/s^2)   	(m/s^2)   	(rpm)     	(deg)     	(deg)     	(deg/s)   	(deg/s)   	(deg/s^2) 	(deg/s^2) 	(kN)      	(kN)      	(kN·m)    	(kN·m)    	(kN)      	(kN)      	(kN)      	(kN)      	(rpm)     	(deg)     	(deg)     	(deg)     	(deg)     	(deg)     	(-)       	(-)       	(-)       	(-)       	(deg)     	(deg)     	(deg)     	(deg)     	(m/s)     	(m/s)     	(m/s)     	(m/s)     	(-)       	(-)       	(-)       	(-)       	(-)       	(-)       	(-)       	(-)       	(-)       	(-)       	(-)       	(-)       
   10.0000	 9.526E+00	-5.500E+00	 0.000E+00	 2.484E+02	 1.007E-02	-4.264E-03	 1.736E-03	-3.269E-03	-2.725E-02	 4.401E-02	 8.555E-02	-1.578E-01	 6.075E+00	 6.396E-01	 1.812E+03	 3.947E-02	 1.062E-01	-1.796E-03	-3.229E-02	-6.104E-01	-1.830E+00	 3.420E-01	 8.437E-01	-2.929E-01	 3.694E-01	 6.075E+00	 2.387E+00	 6.720E+00	-1.003E-01	 6.414E+01	 1.498E+01	 6.140E+00	 5.390E+00	 3.990E+00	 2.590E+00	 8.625E-02	 2.975E-01	 2.205E-01	 2.120E-01	 2.862E+01	 1.169E+01	 9.750E+00	 8.209E+00	 1.730E+01	 2.573E+01	 3.518E+01	 4.484E+01	 1.080E+00	 1.610E+00	 1.242E+00	 1.090E+00	 4.232E-01	 6.166E-02	 4.053E-02	 3.539E-02	 0.000E+00	 0.000E+00	 0.000E+00	 0.000E+00
   10.0500	 9.526E+00	-5.500E+00	 0.000E+00	 2.676E+02	 6.666E-03	-4.767E-03	 2.228E-03	-5.254E-03	-3.435E-02	 7.216E-02	 1.187E-02	-1.579E-01	 6.114E+00	 7.225E-01	 1.812E+03	 3.898E-02	 1.035E-01	-1.106E-02	-5.085E-02	 6.078E-02	 7.382E-01	 2.960E-01	 9.358E-01	-3.380E-01	 2.274E-01	 6.468E+00	 1.765E-01	 6.443E+00	-1.298E-01	 6.414E+01	 1.497E+01	 6.140E+00	 5.390E+00	 3.990E+00	 2.590E+00	 7.518E-02	 2.172E-01	 2.057E-01	 1.914E-01	 3.103E+01	 1.448E+01	 1.058E+01	 8.980E+00	 1.665E+01	 2.504E+01	 3.438E+01	 4.403E+01	 1.189E+00	 1.770E+00	 1.278E+00	 1.092E+00	 5.228E-01	 1.235E-01	 3.830E-02	 4.185E-02	 0.000E+00	 0.000E+00	 0.000E+00	 0.000E+00
   10.1000	 9.526E+00	-5.500E+00	 0.000E+00	 2.869E+02	 2.941E-03	-2.850E-03	 2.278E-03	-6.912E-03	-3.474E-02	 9.531E-02	-4.787E-02	-1.264E-01	 6.333E+00	 6.866E-01	 1.812E+03	 3.808E-02	 1.005E-01	-3.096E-02	-9.076E-02	-3.920E-01	-1.261E+00	 1.551E-01	 8.933E-01	-3.205E-01	 9.799E-02	 6.250E+00	-1.960E+00	 6.302E+00	-1.066E-01	 6.414E+01	 1.498E+01	 6.140E+00	 5.390E+00	 3.990E+00	 2.590E+00	 6.403E-02	 1.052E-01	 1.923E-01	 1.810E-01	 3.363E+01	 1.840E+01	 1.138E+01	 9.521E+00	 1.598E+01	 2.431E+01	 3.353E+01	 4.316E+01	 1.278E+00	 2.085E+00	 1.340E+00	 1.061E+00	 6.538E-01	 2.461E-01	 4.923E-02	 4.966E-02	 0.000E+00	 0.000E+00	 0.000E+00	 0.000E+00
   10.1500	 9.526E+00	-5.500E+00	 0.000E+00	 3.061E+02	 2.260E-03	-1.138E-03	 1.238E-03	-7.896E-03	-1.990E-02	 1.091E-01	-5.253E-02	-9.481E-02	 6.441E+00	 7.457E-01	 1.812E+03	 3.667E-02	 9.653E-02	-2.441E-02	-5.686E-02	-3.794E-01	-5.041E-01	 7.611E-02	 6.750E-01	-1.599E-01	 9.016E-02	 5.224E+00	-3.954E+00	 5.958E+00	-1.274E-01	 6.414E+01	 1.497E+01	 6.140E+00	 5.390E+00	 3.990E+00	 2.590E+00	 5.511E-02	 8.765E-02	 1.814E-01	 1.776E-01	 3.607E+01	 1.983E+01	 1.209E+01	 9.906E+00	 1.536E+01	 2.355E+01	 3.272E+01	 4.232E+01	 1.175E+00	 1.969E+00	 1.346E+00	 1.071E+00	 6.787E-01	 3.664E-01	 6.402E-02	 5.520E-02	 0.000E+00	 0.000E+00	 0.000E+00	 0.000E+00
   10.2000	 9.526E+00	-5.500E+00	 0.000E+00	 3.254E+02	 2.290E-03	-2.364E-03	 3.388E-04	-8.469E-03	-6.828E-03	 1.172E-01	-3.540E-02	-1.175E-01	 6.505E+00	 7.719E-01	 1.812E+03	 3.516E-02	 9.259E-02	-2.034E-02	-6.110E-02	 7.431E-01	 2.209E+00	-2.745E-02	 4.017E-01	-5.174E-02	 1.165E-01	 3.743E+00	-5.420E+00	 5.606E+00	-4.942E-02	 6.414E+01	 1.501E+01	 6.140E+00	 5.390E+00	 3.990E+00	 2.590E+00	 4.963E-02	 8.169E-02	 1.753E-01	 1.788E-01	 3.795E+01	 2.071E+01	 1.259E+01	 1.017E+01	 1.486E+01	 2.294E+01	 3.207E+01	 4.164E+01	 1.090E+00	 1.308E+00	 1.312E+00	 1.043E+00	 6.723E-01	 2.739E-01	 6.142E-02	 5.745E-02	 0.000E+00	 0.000E+00	 0.000E+00	 0.000E+00
   10.2500	 9.526E+00	-5.500E+00	 0.000E+00	 3.446E+02	-1.347E-03	-4.510E-03	-1.455E-03	-7.976E-03	 1.839E-02	 1.098E-01	-1.059E-01	-1.774E-01	 6.541E+00	 7.767E-01	 1.812E+03	 3.410E-02	 9.032E-02	-2.940E-02	-4.562E-02	 5.667E-02	 1.029E+00	-1.553E-01	-4.182E-02	 2.222E-01	-4.592E-03	 1.707E+00	-6.261E+00	 5.697E+00	-2.922E-02	 6.414E+01	 1.500E+01	 6.140E+00	 5.390E+00	 3.990E+00	 2.590E+00	 4.741E-02	 8.127E-02	 1.774E-01	 1.864E-01	 3.897E+01	 2.106E+01	 1.271E+01	 1.018E+01	 1.452E+01	 2.254E+01	 3.164E+01	 4.121E+01	 1.077E+00	 1.032E+00	 1.304E+00	 1.037E+00	 7.093E-01	 2.574E-01	 6.929E-02	 5.679E-02	 0.000E+00	 0.000E+00	 0.000E+00	 0.000E+00
   10.3000	 9.526E+00	-5.500E+00	 0.000E+00	 3.852E+00	-5.605E-03	-3.490E-03	-2.803E-03	-7.367E-03	 3.757E-02	 1.010E-01	-1.794E-01	-1.654E-01	 6.569E+00	 7.333E-01	 1.812E+03	 3.315E-02	 9.027E-02	-9.664E-03	 3.032E-02	 1.405E-01	 1.586E-01	-3.099E-01	-4.531E-01	 4.237E-01	-1.381E-01	-4.281E-01	-6.495E+00	 5.788E+00	 1.098E-02	 6.414E+01	 1.503E+01	 6.140E+00	 5.390E+00	 3.990E+00	 2.590E+00	 4.825E-02	 8.480E-02	 1.905E-01	 2.017E-01	 3.894E+01	 2.085E+01	 1.235E+01	 9.842E+00	 1.438E+01	 2.238E+01	 3.147E+01	 4.104E+01	 1.064E+00	 9.216E-01	 1.220E+00	 1.015E+00	 7.249E-01	 2.809E-01	 5.751E-02	 5.070E-02	 0.000E+00	 0.000E+00	 0.000E+00	 0.000E+00
   10.3500	 9.526E+00	-5.500E+00	 0.000E+00	 2.309E+01	-6.396E-03	-8.026E-04	-4.582E-03	-5.984E-03	 6.274E-02	 8.185E-02	-1.886E-01	-1.035E-01	 6.520E+00	 6.820E-01	 1.812E+03	 3.290E-02	 9.186E-02	 3.887E-03	 4.524E-02	 5.598E-01	 1.342E+00	-3.706E-01	-9.041E-01	 6.649E-01	-1.428E-01	-2.551E+00	-5.912E+00	 5.732E+00	 3.349E-02	 6.414E+01	 1.502E+01	 6.140E+00	 5.390E+00	 3.990E+00	 2.590E+00	 5.229E-02	 9.300E-02	 2.135E-01	 2.244E-01	 3.781E+01	 2.008E+01	 1.155E+01	 9.207E+00	 1.444E+01	 2.252E+01	 3.162E+01	 4.122E+01	 1.035E+00	 8.185E-01	 1.185E+00	 9.989E-01	 6.834E-01	 2.254E-01	 4.180E-02	 4.133E-02	 0.000E+00	 0.000E+00	 0.000E+00	 0.000E+00
   10.4000	 9.526E+00	-5.500E+00	 0.000E+00	 4.234E+01	-3.641E-03	-2.781E-04	-6.563E-03	-4.427E-03	 9.044E-02	 5.995E-02	-1.407E-01	-9.355E-02	 6.334E+00	 7.161E-01	 1.812E+03	 3.364E-02	 9.563E-02	 1.730E-02	 7.864E-02	-2.105E-01	-1.196E+00	-2.916E-01	-1.331E+00	 8.988E-01	-4.634E-02	-4.438E+00	-4.829E+00	 5.971E+00	 5.007E-02	 6.414E+01	 1.503E+01	 6.140E+00	 5.390E+00	 3.990E+00	 2.590E+00	 6.005E-02	 1.103E-01	 2.420E-01	 2.510E-01	 3.576E+01	 1.875E+01	 1.053E+01	 8.454E+00	 1.472E+01	 2.291E+01	 3.204E+01	 4.166E+01	 9.908E-01	 7.341E-01	 1.172E+00	 9.869E-01	 5.932E-01	 1.973E-01	 2.529E-02	 3.115E-02	 0.000E+00	 0.000E+00	 0.000E+00	 0.000E+00
   10.4500	 9.526E+00	-5.500E+00	 0.000E+00	 6.158E+01	-4.657E-04	-1.506E-03	-7.650E-03	-2.324E-03	 1.057E-01	 3.163E-02	-7.887E-02	-6.939E-02	 6.314E+00	 6.578E-01	 1.812E+03	 3.470E-02	 9.910E-02	 3.269E-02	 8.738E-02	 3.698E-01	 9.866E-01	-2.302E-01	-1.598E+00	 9.995E-01	 5.773E-02	-5.765E+00	-3.056E+00	 5.977E+00	 2.426E-02	 6.414E+01	 1.500E+01	 6.140E+00	 5.390E+00	 3.990E+00	 2.590E+00	 7.170E-02	 1.578E-01	 2.690E-01	 2.779E-01	 3.313E+01	 1.650E+01	 9.516E+00	 7.715E+00	 1.519E+01	 2.350E+01	 3.271E+01	 4.237E+01	 9.458E-01	 7.026E-01	 1.161E+00	 9.788E-01	 5.089E-01	 1.542E-01	 1.208E-02	 2.181E-02	 0.000E+00	 0.000E+00	 0.000E+00	 0.000E+00
   10.5000	 9.526E+00	-5.500E+00	 0.000E+00	 8.082E+01	-8.740E-04	-2.314E-03	-8.507E-03	-5.291E-04	 1.177E-01	 5.125E-03	-8.865E-02	-1.344E-01	 6.284E+00	 6.928E-01	 1.812E+03	 3.618E-02	 1.024E-01	 3.126E-02	 4.199E-02	 7.013E-01	 7.841E-01	-2.651E-01	-1.784E+00	 1.116E+00	 3.515E-02	-6.540E+00	-1.033E+00	 6.190E+00	 1.722E-02	 6.414E+01	 1.502E+01	 6.140E+00	 5.390E+00	 3.990E+00	 2.590E+00	 8.526E-02	 3.491E-01	 2.894E-01	 3.031E-01	 3.037E+01	 1.080E+01	 8.657E+00	 7.035E+00	 1.581E+01	 2.405E+01	 3.353E+01	 4.321E+01	 8.957E-01	 6.943E-01	 1.140E+00	 9.720E-01	 4.199E-01	 3.379E-02	 5.941E-03	 1.368E-02	 0.000E+00	 0.000E+00	 0.000E+00	 0.000E+00
   10.5500	 9.526E+00	-5.500E+00	 0.000E+00	 1.001E+02	-3.505E-03	 3.601E-03	-8.116E-03	 2.452E-04	 1.116E-01	-6.979E-03	-1.633E-01	-6.668E-02	 6.203E+00	 7.443E-01	 1.812E+03	 3.795E-02	 1.047E-01	 2.037E-02	 1.209E-02	-8.668E-01	-1.785E+00	-2.457E-01	-1.768E+00	 1.060E+00	-8.378E-02	-6.428E+00	 1.137E+00	 6.611E+00	-3.161E-02	 6.414E+01	 1.499E+01	 6.140E+00	 5.390E+00	 3.990E+00	 2.590E+00	 9.724E-02	 3.771E-01	 3.017E-01	 3.277E-01	 2.791E+01	 9.447E+00	 7.970E+00	 6.357E+00	 1.651E+01	 2.486E+01	 3.439E+01	 4.407E+01	 8.466E-01	 1.125E+00	 1.098E+00	 9.616E-01	 3.402E-01	 1.751E-03	 6.123E-03	 6.072E-03	 0.000E+00	 0.000E+00	 0.000E+00	 0.000E+00
   10.6000	 9.526E+00	-5.500E+00	 0.000E+00	 1.193E+02	-3.326E-03	 9.693E-03	-7.635E-03	 1.576E-03	 1.048E-01	-2.486E-02	-1.631E-01	 8.313E-02	 6.175E+00	 7.155E-01	 1.812E+03	 3.869E-02	 1.052E-01	 1.550E-02	 2.226E-02	-2.138E-01	-6.248E-01	-2.229E-01	-1.626E+00	 1.001E+00	-7.913E-02	-5.695E+00	 3.229E+00	 6.633E+00	-7.261E-02	 6.414E+01	 1.500E+01	 6.140E+00	 5.390E+00	 3.990E+00	 2.590E+00	 1.050E-01	 3.898E-01	 3.130E-01	 3.454E-01	 2.600E+01	 8.602E+00	 7.367E+00	 5.809E+00	 1.720E+01	 2.564E+01	 3.519E+01	 4.487E+01	 8.164E-01	 1.294E+00	 1.053E+00	 9.432E-01	 2.855E-01	-1.178E-02	 6.511E-03	 2.261E-03	 0.000E+00	 0.000E+00	 0.000E+00	 0.000E+00
   10.6500	 9.526E+00	-5.500E+00	 0.000E+00	 1.385E+02	-7.947E-04	 9.229E-03	-6.396E-03	 1.897E-03	 8.768E-02	-2.863E-02	-1.016E-01	 1.031E-01	 6.193E+00	 6.817E-01	 1.812E+03	 3.892E-02	 1.045E-01	-4.352E-03	-4.466E-02	-1.057E-01	-2.333E-01	-1.934E-01	-1.310E+00	 8.202E-01	 1.504E-02	-4.260E+00	 4.869E+00	 6.530E+00	-9.592E-02	 6.414E+01	 1.497E+01	 6.140E+00	 5.390E+00	 3.990E+00	 2.590E+00	 1.090E-01	 3.992E-01	 3.226E-01	 3.441E-01	 2.473E+01	 8.021E+00	 6.943E+00	 5.627E+00	 1.781E+01	 2.629E+01	 3.584E+01	 4.552E+01	 8.150E-01	 1.315E+00	 1.041E+00	 9.234E-01	 2.620E-01	-6.655E-03	 4.840E-03	 4.219E-03	 0.000E+00	 0.000E+00	 0.000E+00	 0.000E+00
   10.7000	 9.526E+00	-5.500E+00	 0.000E+00	 1.578E+02	 3.164E-05	 4.235E-03	-4.782E-03	 2.428E-03	 6.507E-02	-3.689E-02	-8.261E-02	-2.447E-02	 6.283E+00	 7.123E-01	 1.812E+03	 3.870E-02	 1.028E-01	-9.099E-03	-3.378E-02	-5.732E-01	-1.281E+00	-1.889E-01	-9.102E-01	 6.077E-01	 4.062E-02	-2.389E+00	 6.099E+00	 6.415E+00	-1.251E-01	 6.414E+01	 1.498E+01	 6.140E+00	 5.390E+00	 3.990E+00	 2.590E+00	 1.104E-01	 3.978E-01	 3.164E-01	 3.301E-01	 2.406E+01	 7.869E+00	 6.927E+00	 5.725E+00	 1.825E+01	 2.676E+01	 3.631E+01	 4.598E+01	 8.222E-01	 1.311E+00	 1.050E+00	 9.245E-01	 2.583E-01	 4.473E-03	 6.849E-03	 2.994E-03	 0.000E+00	 0.000E+00	 0.000E+00	 0.000E+00
   10.7500	 9.526E+00	-5.500E+00	 0.000E+00	 1.770E+02	-9.194E-04	 2.038E-03	-2.953E-03	 1.816E-03	 3.994E-02	-2.855E-02	-7.862E-02	-7.714E-02	 6.089E+00	 7.270E-01	 1.812E+03	 3.765E-02	 9.941E-02	-2.168E-02	-7.107E-02	 4.214E-01	 1.451E+00	-9.888E-02	-4.716E-01	 3.918E-01	 2.136E-03	-2.707E-01	 6.490E+00	 6.103E+00	-1.034E-01	 6.414E+01	 1.496E+01	 6.140E+00	 5.390E+00	 3.990E+00	 2.590E+00	 1.089E-01	 3.821E-01	 2.977E-01	 3.132E-01	 2.402E+01	 8.244E+00	 7.301E+00	 5.854E+00	 1.847E+01	 2.700E+01	 3.654E+01	 4.610E+01	 1.673E+00	 1.113E+00	 9.075E-01	 8.531E-01	 6.662E-01	 1.353E-02	 1.028E-02	 7.063E-03	 0.000E+00	 0.000E+00	 0.000E+00	 0.000E+00
   10.8000	 9.526E+00	-5.500E+00	 0.000E+00	 1.963E+02	-3.465E-03	 2.647E-03	-6.857E-04	 7.570E-04	 6.023E-03	-1.306E-02	-2.072E-01	-4.208E-02	 6.253E+00	 6.766E-01	 1.812E+03	 3.653E-02	 9.631E-02	-3.099E-02	-8.817E-02	 7.189E-03	-6.548E-01	-1.830E-02	 2.318E-02	 9.572E-02	-1.206E-01	 1.939E+00	 6.317E+00	 5.995E+00	-1.038E-01	 6.414E+01	 1.500E+01	 6.140E+00	 5.390E+00	 3.990E+00	 2.590E+00	 1.053E-01	 3.607E-01	 2.776E-01	 2.869E-01	 2.451E+01	 8.857E+00	 7.716E+00	 6.358E+00	 1.845E+01	 2.698E+01	 3.650E+01	 4.615E+01	 8.539E-01	 1.371E+00	 1.098E+00	 9.745E-01	 3.011E-01	 3.259E-02	 1.810E-02	 9.606E-03	 0.000E+00	 0.000E+00	 0.000E+00	 0.000E+00
   10.8500	 9.526E+00	-5.500E+00	 0.000E+00	 2.155E+02	 2.121E-03	 1.048E-03	-8.766E-05	-5.398E-04	-2.155E-03	 5.682E-03	-8.981E-02	-5.338E-02	 6.287E+00	 7.259E-01	 1.812E+03	 3.549E-02	 9.321E-02	-2.007E-02	-4.529E-02	-6.317E-01	-8.156E-01	 1.628E-01	 3.309E-01	-2.679E-04	 8.623E-02	 3.776E+00	 5.325E+00	 5.927E+00	-5.588E-02	 6.414E+01	 1.500E+01	 6.140E+00	 5.390E+00	 3.990E+00	 2.590E+00	 9.998E-02	 3.366E-01	 2.547E-01	 2.636E-01	 2.554E+01	 9.697E+00	 8.275E+00	 6.800E+00	 1.818E+01	 2.669E+01	 3.618E+01	 4.583E+01	 8.963E-01	 1.432E+00	 1.125E+00	 1.015E+00	 3.224E-01	 3.542E-02	 1.789E-02	 1.380E-02	 0.000E+00	 0.000E+00	 0.000E+00	 0.000E+00
   10.9000	 9.526E+00	-5.500E+00	 0.000E+00	 2.348E+02	 9.173E-03	-3.499E-03	 1.328E-03	-2.289E-03	-2.052E-02	 3.034E-02	 1.064E-01	-1.391E-01	 6.564E+00	 7.625E-01	 1.812E+03	 3.416E-02	 9.114E-02	-2.068E-02	-5.883E-03	 4.649E-01	 1.767E+00	 1.622E-01	 6.983E-01	-2.453E-01	 3.692E-01	 5.335E+00	 3.739E+00	 5.716E+00	-2.816E-02	 6.414E+01	 1.502E+01	 6.140E+00	 5.390E+00	 3.990E+00	 2.590E+00	 9.296E-02	 3.145E-01	 2.326E-01	 2.330E-01	 2.713E+01	 1.076E+01	 9.091E+00	 7.573E+00	 1.771E+01	 2.618E+01	 3.565E+01	 4.531E+01	 1.001E+00	 1.509E+00	 1.202E+00	 1.058E+00	 3.710E-01	 4.341E-02	 3.245E-02	 2.213E-02	 0.000E+00	 0.000E+00	 0.000E+00	 0.000E+00
   10.9500	 9.526E+00	-5.500E+00	 0.000E+00	 2.540E+02	 9.085E-03	-6.632E-03	 1.807E-03	-3.572E-03	-2.743E-02	 4.838E-02	 9.816E-02	-1.998E-01	 6.553E+00	 7.576E-01	 1.812E+03	 3.341E-02	 9.171E-02	-1.208E-02	 1.264E-02	 1.776E-01	 5.947E-02	 1.832E-01	 8.709E-01	-2.856E-01	 3.499E-01	 6.212E+00	 1.804E+00	 5.799E+00	 2.054E-02	 6.414E+01	 1.502E+01	 6.140E+00	 5.390E+00	 3.990E+00	 2.590E+00	 8.334E-02	 2.894E-01	 2.161E-01	 2.048E-01	 2.924E+01	 1.209E+01	 9.985E+00	 8.450E+00	 1.711E+01	 2.552E+01	 3.496E+01	 4.462E+01	 1.111E+00	 1.644E+00	 1.248E+00	 1.066E+00	 4.495E-01	 6.676E-02	 4.022E-02	 3.540E-02	 0.000E+00	 0.000E+00	 0.000E+00	 0.000E+00
   11.0000	 9.526E+00	-5.500E+00	 0.000E+00	 2.732E+02	 3.787E-03	-5.300E-03	 2.462E-03	-5.766E-03	-3.766E-02	 7.933E-02	-4.467E-02	-1.695E-01	 6.475E+00	 7.512E-01	 1.812E+03	 3.331E-02	 9.340E-02	 9.916E-03	 6.744E-02	 3.409E-01	 1.017E+00	 2.114E-01	 9.474E-01	-3.516E-01	 1.141E-01	 6.480E+00	-4.222E-01	 5.824E+00	 2.659E-02	 6.414E+01	 1.502E+01	 6.140E+00	 5.390E+00	 3.990E+00	 2.590E+00	 7.210E-02	 1.466E-01	 2.015E-01	 1.878E-01	 3.172E+01	 1.657E+01	 1.081E+01	 9.138E+00	 1.643E+01	 2.485E+01	 3.412E+01	 4.377E+01	 1.214E+00	 1.967E+00	 1.302E+00	 1.095E+00	 5.587E-01	 2.122E-01	 4.174E-02	 4.630E-02	 0.000E+00	 0.000E+00	 0.000E+00	 0.000E+00
   11.0500	 9.526E+00	-5.500E+00	 0.000E+00	 2.925E+02	 1.019E-03	-1.789E-03	 2.151E-03	-7.173E-03	-3.322E-02	 9.904E-02	-9.572E-02	-1.036E-01	 6.355E+00	 7.108E-01	 1.812E+03	 3.383E-02	 9.637E-02	 1.258E-02	 4.636E-02	 4.899E-01	 6.432E-01	 1.272E-01	 8.485E-01	-2.866E-01	 2.676E-02	 6.027E+00	-2.555E+00	 5.830E+00	 4.274E-02	 6.414E+01	 1.502E+01	 6.140E+00	 5.390E+00	 3.990E+00	 2.590E+00	 6.151E-02	 9.977E-02	 1.903E-01	 1.807E-01	 3.427E+01	 1.876E+01	 1.151E+01	 9.579E+00	 1.576E+01	 2.406E+01	 3.327E+01	 4.289E+01	 1.288E+00	 2.079E+00	 1.346E+00	 1.056E+00	 6.941E-01	 2.712E-01	 5.421E-02	 4.786E-02	 0.000E+00	 0.000E+00	 0.000E+00	 0.000E+00
   11.1000	 9.526E+00	-5.500E+00	 0.000E+00	 3.117E+02	 1.972E-03	-3.771E-04	 1.034E-03	-8.180E-03	-1.684E-02	 1.130E-01	-5.089E-02	-8.247E-02	 6.362E+00	 6.623E-01	 1.812E+03	 3.499E-02	 9.974E-02	 2.237E-02	 5.473E-02	-3.551E-01	-2.087E+00	 3.219E-02	 6.168E-01	-1.312E-01	 9.325E-02	 4.873E+00	-4.444E+00	 6.239E+00	 9.055E-03	 6.414E+01	 1.501E+01	 6.140E+00	 5.390E+00	 3.990E+00	 2.590E+00	 5.352E-02	 8.624E-02	 1.815E-01	 1.793E-01	 3.658E+01	 2.001E+01	 1.214E+01	 9.904E+00	 1.517E+01	 2.333E+01	 3.249E+01	 4.208E+01	 1.119E+00	 1.699E+00	 1.304E+00	 1.068E+00	 6.527E-01	 3.144E-01	 5.616E-02	 5.643E-02	 0.000E+00	 0.000E+00	 0.000E+00	 0.000E+00
   11.1500	 9.526E+00	-5.500E+00	 0.000E+00	 3.310E+02	 2.055E-03	-2.491E-03	-8.988E-05	-8.358E-03	-6.987E-04	 1.153E-01	-3.597E-02	-1.346E-01	 6.261E+00	 6.983E-01	 1.812E+03	 3.649E-02	 1.021E-01	 3.950E-02	 5.965E-02	-3.821E-01	-8.922E-01	-3.715E-02	 2.945E-01	 1.016E-02	 1.130E-01	 3.232E+00	-5.734E+00	 6.314E+00	 1.497E-02	 6.414E+01	 1.501E+01	 6.140E+00	 5.390E+00	 3.990E+00	 2.590E+00	 4.895E-02	 8.178E-02	 1.772E-01	 1.820E-01	 3.825E+01	 2.077E+01	 1.257E+01	 1.012E+01	 1.473E+01	 2.279E+01	 3.191E+01	 4.149E+01	 1.078E+00	 1.215E+00	 1.327E+00	 1.042E+00	 6.745E-01	 2.622E-01	 6.418E-02	 5.575E-02	 0.000E+00	 0.000E+00	 0.000E+00	 0.000E+00
   11.2000	 9.526E+00	-5.500E+00	 0.000E+00	 3.502E+02	-1.174E-03	-3.822E-03	-2.005E-03	-7.936E-03	 2.615E-02	 1.093E-01	-1.014E-01	-1.617E-01	 6.251E+00	 7.414E-01	 1.812E+03	 3.760E-02	 1.032E-01	 1.532E-02	 1.917E-02	 3.186E-01	 1.497E+00	-1.375E-01	-1.711E-01	 2.945E-01	 2.872E-03	 1.081E+00	-6.429E+00	 6.362E+00	-3.832E-02	 6.414E+01	 1.500E+01	 6.140E+00	 5.390E+00	 3.990E+00	 2.590E+00	 4.750E-02	 8.218E-02	 1.810E-01	 1.911E-01	 3.902E+01	 2.102E+01	 1.261E+01	 1.007E+01	 1.446E+01	 2.246E+01	 3.156E+01	 4.113E+01	 1.069E+00	 9.887E-01	 1.300E+00	 1.030E+00	 7.072E-01	 2.539E-01	 7.189E-02	 5.498E-02	 0.000E+00	 0.000E+00	 0.000E+00	 0.000E+00
   11.2500	 9.526E+00	-5.500E+00	 0.000E+00	 9.450E+00	-4.625E-03	-1.984E-03	-3.313E-03	-7.061E-03	 4.463E-02	 9.690E-02	-1.652E-01	-1.294E-01	 6.135E+00	 7.205E-01	 1.812E+03	 3.840E-02	 1.044E-01	 7.801E-03	-6.075E-03	-4.797E-01	-1.717E+00	-2.411E-01	-5.838E-01	 4.794E-01	-1.050E-01	-1.077E+00	-6.431E+00	 6.608E+00	-6.821E-02	 6.414E+01	 1.499E+01	 6.140E+00	 5.390E+00	 3.990E+00	 2.590E+00	 4.909E-02	 8.654E-02	 1.961E-01	 2.074E-01	 3.871E+01	 2.069E+01	 1.217E+01	 9.693E+00	 1.438E+01	 2.240E+01	 3.149E+01	 4.107E+01	 1.058E+00	 8.973E-01	 1.213E+00	 1.013E+00	 7.199E-01	 2.789E-01	 5.390E-02	 4.851E-02	 0.000E+00	 0.000E+00	 0.000E+00	 0.000E+00
   11.3000	 9.526E+00	-5.500E+00	 0.000E+00	 2.869E+01	-4.633E-03	-8.710E-05	-5.384E-03	-5.549E-03	 7.401E-02	 7.567E-02	-1.546E-01	-9.170E-02	 6.286E+00	 7.287E-01	 1.812E+03	 3.855E-02	 1.033E-01	 3.267E-03	-1.457E-02	 3.737E-02	 7.353E-01	-3.148E-01	-1.057E+00	 7.605E-01	-8.141E-02	-3.185E+00	-5.640E+00	 6.434E+00	-1.102E-01	 6.414E+01	 1.497E+01	 6.140E+00	 5.390E+00	 3.990E+00	 2.590E+00	 5.395E-02	 9.610E-02	 2.200E-01	 2.303E-01	 3.735E+01	 1.982E+01	 1.133E+01	 9.058E+00	 1.452E+01	 2.262E+01	 3.173E+01	 4.133E+01	 1.021E+00	 7.928E-01	 1.184E+00	 9.975E-01	 6.552E-01	 2.203E-01	 3.790E-02	 3.930E-02	 0.000E+00	 0.000E+00	 0.000E+00	 0.000E+00
   11.3500	 9.526E+00	-5.500E+00	 0.000E+00	 4.793E+01	-2.422E-03	-5.979E-04	-6.975E-03	-3.907E-03	 9.622E-02	 5.244E-02	-1.175E-01	-1.075E-01	 6.269E+00	 7.522E-01	 1.812E+03	 3.831E-02	 1.019E-01	-1.804E-02	-6.435E-02	-3.341E-01	-1.235E+00	-2.608E-01	-1.430E+00	 9.368E-01	-6.477E-03	-4.904E+00	-4.343E+00	 6.370E+00	-1.005E-01	 6.414E+01	 1.498E+01	 6.140E+00	 5.390E+00	 3.990E+00	 2.590E+00	 6.261E-02	 1.163E-01	 2.477E-01	 2.563E-01	 3.515E+01	 1.839E+01	 1.033E+01	 8.325E+00	 1.486E+01	 2.309E+01	 3.223E+01	 4.185E+01	 9.815E-01	 7.280E-01	 1.173E+00	 9.864E-01	 5.742E-01	 1.906E-01	 2.246E-02	 2.948E-02	 0.000E+00	 0.000E+00	 0.000E+00	 0.000E+00
   11.4000	 9.526E+00	-5.500E+00	 0.000E+00	 6.718E+01	-8.476E-04	-3.048E-03	-7.969E-03	-1.488E-03	 1.101E-01	 1.834E-02	-9.080E-02	-1.592E-01	 6.317E+00	 7.481E-01	 1.812E+03	 3.755E-02	 9.923E-02	-1.401E-02	-3.979E-02	-5.273E-01	-1.125E+00	-2.366E-01	-1.676E+00	 1.043E+00	 3.835E-02	-6.096E+00	-2.438E+00	 6.149E+00	-1.371E-01	 6.414E+01	 1.498E+01	 6.140E+00	 5.390E+00	 3.990E+00	 2.590E+00	 7.502E-02	 1.907E-01	 2.740E-01	 2.829E-01	 3.243E+01	 1.543E+01	 9.326E+00	 7.589E+00	 1.538E+01	 2.370E+01	 3.295E+01	 4.261E+01	 9.329E-01	 6.936E-01	 1.159E+00	 9.776E-01	 4.860E-01	 1.346E-01	 1.015E-02	 2.023E-02	 0.000E+00	 0.000E+00	 0.000E+00	 0.000E+00
   11.4500	 9.526E+00	-5.500E+00	 0.000E+00	 8.642E+01	-2.330E-03	-2.747E-04	-8.470E-03	-4.495E-04	 1.171E-01	 4.796E-03	-1.193E-01	-6.423E-02	 6.464E+00	 7.023E-01	 1.812E+03	 3.649E-02	 9.586E-02	-1.400E-02	-5.414E-02	 4.553E-01	 1.698E+00	-3.067E-01	-1.797E+00	 1.114E+00	-2.133E-02	-6.578E+00	-4.096E-01	 5.812E+00	-7.396E-02	 6.414E+01	 1.501E+01	 6.140E+00	 5.390E+00	 3.990E+00	 2.590E+00	 8.862E-02	 3.596E-01	 2.931E-01	 3.086E-01	 2.970E+01	 1.037E+01	 8.476E+00	 6.884E+00	 1.602E+01	 2.429E+01	 3.378E+01	 4.346E+01	 8.815E-01	 8.300E-01	 1.131E+00	 9.692E-01	 3.973E-01	 2.762E-02	 4.923E-03	 1.184E-02	 0.000E+00	 0.000E+00	 0.000E+00	 0.000E+00
   11.5000	 9.526E+00	-5.500E+00	 0.000E+00	 1.057E+02	-4.409E-03	 6.486E-03	-7.965E-03	 6.442E-04	 1.097E-01	-1.142E-02	-1.740E-01	 3.434E-02	 6.514E+00	 7.065E-01	 1.812E+03	 3.548E-02	 9.338E-02	-3.062E-02	-5.337E-02	 1.034E-02	 9.921E-01	-3.144E-01	-1.734E+00	 1.050E+00	-1.085E-01	-6.250E+00	 1.779E+00	 5.862E+00	-6.115E-02	 6.414E+01	 1.500E+01	 6.140E+00	 5.390E+00	 3.990E+00	 2.590E+00	 9.978E-02	 3.809E-01	 3.040E-01	 3.335E-01	 2.734E+01	 9.205E+00	 7.819E+00	 6.194E+00	 1.672E+01	 2.510E+01	 3.464E+01	 4.432E+01	 8.353E-01	 1.180E+00	 1.086E+00	 9.574E-01	 3.223E-01	-4.397E-03	 6.284E-03	 4.430E-03	 0.000E+00	 0.000E+00	 0.000E+00	 0.000E+00
   11.5500	 9.526E+00	-5.500E+00	 0.000E+00	 1.249E+02	-3.282E-03	 9.522E-03	-7.321E-03	 1.713E-03	 1.004E-01	-2.721E-02	-1.607E-01	 6.397E-02	 6.465E+00	 7.369E-01	 1.812E+03	 3.432E-02	 9.250E-02	-1.710E-02	 4.262E-03	 9.456E-02	-6.443E-03	-2.485E-01	-1.550E+00	 9.597E-01	-7.459E-02	-5.340E+00	 3.725E+00	 5.917E+00	-1.799E-02	 6.414E+01	 1.502E+01	 6.140E+00	 5.390E+00	 3.990E+00	 2.590E+00	 1.065E-01	 3.926E-01	 3.166E-01	 3.469E-01	 2.557E+01	 8.417E+00	 7.221E+00	 5.720E+00	 1.739E+01	 2.585E+01	 3.540E+01	 4.507E+01	 8.131E-01	 1.306E+00	 1.046E+00	 9.366E-01	 2.758E-01	-1.146E-02	 5.977E-03	 2.406E-03	 0.000E+00	 0.000E+00	 0.000E+00	 0.000E+00
   11.6000	 9.526E+00	-5.500E+00	 0.000E+00	 1.441E+02	-7.223E-04	 6.715E-03	-5.897E-03	 2.126E-03	 8.057E-02	-3.243E-02	-1.035E-01	 3.210E-02	 6.317E+00	 7.184E-01	 1.812E+03	 3.360E-02	 9.270E-02	-8.125E-03	 1.588E-02	 4.580E-01	 1.346E+00	-2.769E-01	-1.189E+00	 7.536E-01	 2.534E-02	-3.741E+00	 5.246E+00	 5.785E+00	 6.075E-03	 6.414E+01	 1.501E+01	 6.140E+00	 5.390E+00	 3.990E+00	 2.590E+00	 1.098E-01	 4.014E-01	 3.232E-01	 3.415E-01	 2.444E+01	 7.888E+00	 6.876E+00	 5.617E+00	 1.795E+01	 2.645E+01	 3.600E+01	 4.567E+01	 8.151E-01	 1.308E+00	 1.040E+00	 9.198E-01	 2.581E-01	-4.618E-03	 4.851E-03	 4.347E-03	 0.000E+00	 0.000E+00	 0.000E+00	 0.000E+00
   11.6500	 9.526E+00	-5.500E+00	 0.000E+00	 1.634E+02	-3.666E-04	 2.138E-03	-4.335E-03	 2.456E-03	 5.863E-02	-3.706E-02	-9.613E-02	-5.654E-02	 6.412E+00	 7.793E-01	 1.812E+03	 3.366E-02	 9.494E-02	 3.490E-03	 4.587E-02	-1.697E-01	-1.199E+00	-1.728E-01	-7.983E-01	 5.549E-01	 2.116E-02	-1.847E+00	 6.290E+00	 5.933E+00	 4.151E-02	 6.414E+01	 1.503E+01	 6.140E+00	 5.390E+00	 3.990E+00	 2.590E+00	 1.313E-01	 3.962E-01	 3.137E-01	 3.252E-01	 2.076E+01	 7.858E+00	 6.938E+00	 5.765E+00	 1.735E+01	 2.685E+01	 3.640E+01	 4.606E+01	 9.651E-01	 1.310E+00	 1.051E+00	 9.267E-01	 2.630E-01	 6.700E-03	 7.452E-03	 3.212E-03	 0.000E+00	 0.000E+00	 0.000E+00	 0.000E+00
   11.7000	 9.526E+00	-5.500E+00	 0.000E+00	 1.826E+02	-1.804E-03	 1.202E-03	-2.166E-03	 1.544E-03	 2.927E-02	-2.437E-02	-8.033E-02	-7.974E-02	 6.711E+00	 7.872E-01	 1.812E+03	 3.412E-02	 9.706E-02	 2.172E-02	 6.689E-02	 3.131E-01	 9.314E-01	-2.957E-01	-3.077E-01	 2.851E-01	-1.134E-02	 3.600E-01	 6.517E+00	 5.870E+00	 2.332E-02	 6.414E+01	 1.500E+01	 6.140E+00	 5.390E+00	 3.990E+00	 2.590E+00	 1.085E-01	 3.812E-01	 2.979E-01	 3.037E-01	 2.402E+01	 8.219E+00	 7.226E+00	 6.087E+00	 1.847E+01	 2.699E+01	 3.653E+01	 4.618E+01	 1.219E+00	 1.413E+00	 1.075E+00	 9.386E-01	 4.623E-01	 4.784E-02	 2.420E-02	 1.232E-02	 0.000E+00	 0.000E+00	 0.000E+00	 0.000E+00
   11.7500	 9.526E+00	-5.500E+00	 0.000E+00	 2.019E+02	-1.899E-03	 2.376E-03	-5.293E-04	 5.753E-04	 5.451E-03	-1.035E-02	-1.139E-01	-4.118E-02	 6.508E+00	 7.527E-01	 1.812E+03	 3.511E-02	 9.942E-02	 2.543E-02	 3.578E-02	 8.392E-01	 1.397E+00	-2.144E-01	 1.149E-01	 8.498E-02	-1.125E-02	 2.472E+00	 6.136E+00	 5.981E+00	 3.592E-02	 6.414E+01	 1.502E+01	 6.140E+00	 5.390E+00	 3.990E+00	 2.590E+00	 1.041E-01	 3.543E-01	 2.715E-01	 2.807E-01	 2.471E+01	 9.059E+00	 7.854E+00	 6.455E+00	 1.838E+01	 2.692E+01	 3.644E+01	 4.609E+01	 8.553E-01	 1.393E+00	 1.112E+00	 9.882E-01	 3.041E-01	 3.323E-02	 1.734E-02	 1.021E-02	 0.000E+00	 0.000E+00	 0.000E+00	 0.000E+00
   11.8000	 9.526E+00	-5.500E+00	 0.000E+00	 2.211E+02	 4.063E-03	 4.356E-04	 3.268E-04	-1.120E-03	-7.959E-03	 1.368E-02	-5.126E-02	-7.133E-02	 6.170E+00	 7.136E-01	 1.812E+03	 3.662E-02	 1.016E-01	 1.751E-02	 1.465E-02	-5.939E-01	-1.100E+00	 2.167E-01	 4.450E-01	-7.095E-02	 1.575E-01	 4.281E+00	 4.916E+00	 6.406E+00	-5.874E-03	 6.414E+01	 1.499E+01	 6.140E+00	 5.390E+00	 3.990E+00	 2.590E+00	 9.819E-02	 3.292E-01	 2.455E-01	 2.550E-01	 2.594E+01	 1.002E+01	 8.578E+00	 7.002E+00	 1.805E+01	 2.656E+01	 3.605E+01	 4.569E+01	 9.236E-01	 1.457E+00	 1.169E+00	 1.025E+00	 3.345E-01	 4.051E-02	 2.690E-02	 1.656E-02	 0.000E+00	 0.000E+00	 0.000E+00	 0.000E+00
   11.8500	 9.526E+00	-5.500E+00	 0.000E+00	 2.404E+02	 9.517E-03	-3.382E-03	 1.613E-03	-2.710E-03	-2.556E-02	 3.623E-02	 7.326E-02	-1.378E-01	 6.119E+00	 6.663E-01	 1.812E+03	 3.749E-02	 1.029E-01	 2.009E-02	 3.891E-02	-2.022E-01	-7.751E-01	 3.372E-01	 7.751E-01	-2.863E-01	 3.477E-01	 5.696E+00	 3.220E+00	 6.509E+00	-4.265E-02	 6.414E+01	 1.500E+01	 6.140E+00	 5.390E+00	 3.990E+00	 2.590E+00	 9.048E-02	 3.085E-01	 2.280E-01	 2.244E-01	 2.768E+01	 1.108E+01	 9.320E+00	 7.813E+00	 1.754E+01	 2.599E+01	 3.546E+01	 4.512E+01	 1.029E+00	 1.530E+00	 1.214E+00	 1.071E+00	 3.886E-01	 4.637E-02	 3.522E-02	 2.687E-02	 0.000E+00	 0.000E+00	 0.000E+00	 0.000E+00
   11.9000	 9.526E+00	-5.500E+00	 0.000E+00	 2.596E+02	 8.702E-03	-5.146E-03	 1.951E-03	-4.285E-03	-2.945E-02	 5.845E-02	 9.049E-02	-1.688E-01	 6.300E+00	 7.241E-01	 1.812E+03	 3.805E-02	 1.032E-01	 5.817E-03	-1.490E-02	 4.734E-02	 6.804E-02	 2.016E-01	 9.045E-01	-3.036E-01	 3.331E-01	 6.364E+00	 1.140E+00	 6.443E+00	-7.044E-02	 6.414E+01	 1.498E+01	 6.140E+00	 5.390E+00	 3.990E+00	 2.590E+00	 8.014E-02	 2.775E-01	 2.125E-01	 1.992E-01	 2.994E+01	 1.259E+01	 1.019E+01	 8.658E+00	 1.692E+01	 2.530E+01	 3.472E+01	 4.438E+01	 1.143E+00	 1.680E+00	 1.256E+00	 1.075E+00	 4.762E-01	 7.483E-02	 3.954E-02	 3.517E-02	 0.000E+00	 0.000E+00	 0.000E+00	 0.000E+00
   11.9500	 9.526E+00	-5.500E+00	 0.000E+00	 2.788E+02	 3.860E-03	-3.656E-03	 2.447E-03	-6.371E-03	-3.706E-02	 8.771E-02	-2.824E-02	-1.423E-01	 6.296E+00	 6.627E-01	 1.812E+03	 3.841E-02	 1.030E-01	 2.074E-03	-9.733E-03	-6.189E-01	-1.525E+00	 1.836E-01	 9.404E-01	-3.500E-01	 1.321E-01	 6.467E+00	-1.092E+00	 6.427E+00	-1.070E-01	 6.414E+01	 1.498E+01	 6.140E+00	 5.390E+00	 3.990E+00	 2.590E+00	 6.864E-02	 1.216E-01	 1.974E-01	 1.846E-01	 3.252E+01	 1.754E+01	 1.106E+01	 9.307E+00	 1.625E+01	 2.464E+01	 3.388E+01	 4.352E+01	 1.245E+00	 2.078E+00	 1.320E+00	 1.098E+00	 5.963E-01	 2.359E-01	 4.431E-02	 5.129E-02	 0.000E+00	 0.000E+00	 0.000E+00	 0.000E+00
   12.0000	 9.526E+00	-5.500E+00	 0.000E+00	 2.981E+02	 1.984E-03	-1.025E-03	 1.752E-03	-7.524E-03	-2.760E-02	 1.040E-01	-7.644E-02	-8.910E-02	 6.319E+00	 7.628E-01	 1.812E+03	 3.797E-02	 1.009E-01	-8.368E-03	-4.084E-02	 3.597E-01	 1.273E+00	 1.464E-01	 7.765E-01	-2.352E-01	 6.453E-02	 5.707E+00	-3.125E+00	 6.163E+00	-1.028E-01	 6.414E+01	 1.496E+01	 6.140E+00	 5.390E+00	 3.990E+00	 2.590E+00	 5.855E-02	 9.308E-02	 1.857E-01	 1.787E-01	 3.507E+01	 1.929E+01	 1.180E+01	 9.743E+00	 1.560E+01	 2.385E+01	 3.305E+01	 4.266E+01	 1.259E+00	 2.070E+00	 1.360E+00	 1.067E+00	 7.026E-01	 3.167E-01	 6.057E-02	 5.102E-02	 0.000E+00	 0.000E+00	 0.000E+00	 0.000E+00
   12.0500	 9.526E+00	-5.500E+00	 0.000E+00	 3.173E+02	 2.832E-03	-1.168E-03	 7.220E-04	-8.415E-03	-1.252E-02	 1.164E-01	-3.690E-02	-9.704E-02	 6.317E+00	 7.208E-01	 1.812E+03	 3.733E-02	 9.868E-02	-2.238E-02	-7.644E-02	 1.558E-01	-3.287E-01	 5.570E-02	 5.314E-01	-1.023E-01	 1.224E-01	 4.419E+00	-4.920E+00	 6.099E+00	-1.093E-01	 6.414E+01	 1.500E+01	 6.140E+00	 5.390E+00	 3.990E+00	 2.590E+00	 5.155E-02	 8.350E-02	 1.777E-01	 1.781E-01	 3.723E+01	 2.038E+01	 1.239E+01	 1.006E+01	 1.505E+01	 2.317E+01	 3.231E+01	 4.189E+01	 1.105E+00	 1.503E+00	 1.303E+00	 1.058E+00	 6.611E-01	 2.913E-01	 6.085E-02	 5.815E-02	 0.000E+00	 0.000E+00	 0.000E+00	 0.000E+00