
FAST Summary File

Predictions were generated on 02-Jul-2014 at 20:59:36 using FAST (v8.08.00c-bjj, 30-June-2014), compiled for 32-bit systems using single precision
  compiled with
    NWTC Subroutine Library (v2.03.03b-bjj, 30-June-2014)
    ElastoDyn (v1.01.06b-bjj, 30-June-2014)
    AeroDyn (v14.02.01c-bjj, 30-June-2014)
    InflowWind (v2.00.01b-bjj, 30-June-2014)
    ServoDyn (v1.01.02a-bjj, 30-June-2014)
    HydroDyn (unknown version, unknown date) [not called]
    SubDyn (unknown version, unknown date) [not called]
    MAP (unknown version, unknown date) [not called]
    FEAMooring (unknown version, unknown date) [not called]
    IceFloe (unknown version, unknown date) [not called]
    IceDyn (unknown version, unknown date) [not called]


Modeling a land-based turbine
Description from the FAST input file: 
  FAST Certification Test #03: AWT-27CR2 with many DOFs with free yaw and steady wind.

Interpolation order for input/output time histories: 2 (quadratic)
Number of correction iterations:  0


   Requested Time Steps  
  -------------------------------------------------
  Component          Time Step (s)    Subcycles (-)
  -----------------  ---------------  -------------
  FAST (glue code)    4.000E-03
  ElastoDyn           4.000E-03              1
  AeroDyn             4.000E-03              1
  ServoDyn            4.000E-03              1
  FAST output files   2.000E-02              5^-1


   Requested Channels in FAST Output File(s)  
  --------------------------------------------
  Number  Name        Units       Generated by
  ------  ----------  ----------  ------------
       1  Time        (s)         FAST
       2  WindVxi     (m/s)       InflowWind
       3  WindVyi     (m/s)       InflowWind
       4  WindVzi     (m/s)       InflowWind
       5  Azimuth     (deg)       ElastoDyn
       6  TeetDefl    (deg)       ElastoDyn
       7  RotTeetV    (deg/s)     ElastoDyn
       8  RotTeetA    (deg/s^2)   ElastoDyn
       9  OoPDefl2    (m)         ElastoDyn
      10  IPDefl2     (m)         ElastoDyn
      11  RootMOoP2   (kN·m)      ElastoDyn
      12  RootMIP2    (kN·m)      ElastoDyn
      13  RotTorq     (kN·m)      ElastoDyn
      14  YawBrTDxp   (m)         ElastoDyn
      15  YawBrTDyp   (m)         ElastoDyn
      16  YawBrTAxp   (m/s^2)     ElastoDyn
      17  YawBrTAyp   (m/s^2)     ElastoDyn
      18  NacYaw      (deg)       ElastoDyn
      19  NacYawV     (deg/s)     ElastoDyn
      20  NacYawA     (deg/s^2)   ElastoDyn
      21  LSSGagMys   (kN·m)      ElastoDyn
      22  LSSGagMzs   (kN·m)      ElastoDyn
      23  TwrBsMxt    (kN·m)      ElastoDyn
      24  TwrBsMyt    (kN·m)      ElastoDyn
