
FAST Summary File

Predictions were generated on 02-Jul-2014 at 20:59:28 using FAST (v8.08.00c-bjj, 30-June-2014), compiled for 32-bit systems using single precision
  compiled with
    NWTC Subroutine Library (v2.03.03b-bjj, 30-June-2014)
    ElastoDyn (v1.01.06b-bjj, 30-June-2014)
    AeroDyn (v14.02.01c-bjj, 30-June-2014)
    InflowWind (v2.00.01b-bjj, 30-June-2014)
    ServoDyn (v1.01.02a-bjj, 30-June-2014)
    HydroDyn (unknown version, unknown date) [not called]
    SubDyn (unknown version, unknown date) [not called]
    MAP (unknown version, unknown date) [not called]
    FEAMooring (unknown version, unknown date) [not called]
    IceFloe (unknown version, unknown date) [not called]
    IceDyn (unknown version, unknown date) [not called]


Modeling a land-based turbine
Description from the FAST input file: 
  FAST Certification Test #01: AWT-27CR2 with many DOFs with fixed yaw error and steady wind

Interpolation order for input/output time histories: 1 (linear)
Number of correction iterations:  0


   Requested Time Steps  
  -------------------------------------------------
  Component          Time Step (s)    Subcycles (-)
  -----------------  ---------------  -------------
  FAST (glue code)    4.000E-03
  ElastoDyn           4.000E-03              1
  AeroDyn             4.000E-03              1
  ServoDyn            4.000E-03              1
  FAST output files   2.000E-02              5^-1


   Requested Channels in FAST Output File(s)  
  --------------------------------------------
  Number  Name        Units       Generated by
  ------  ----------  ----------  ------------
       1  Time        (s)         FAST
       2  WindVxi     (m/s)       InflowWind
       3  WindVyi     (m/s)       InflowWind
       4  WindVzi     (m/s)       InflowWind
       5  LSSGagPxa   (deg)       ElastoDyn
       6  TeetDefl    (deg)       ElastoDyn
       7  TipDxb2     (m)         ElastoDyn
       8  TipDyb2     (m)         ElastoDyn
       9  TipALxb2    (m/s^2)     ElastoDyn
      10  TipALyb2    (m/s^2)     ElastoDyn
      11  Spn2ALxb1   (m/s^2)     ElastoDyn
      12  Spn2ALyb1   (m/s^2)     ElastoDyn
      13  YawBrRDxt   (deg)       ElastoDyn
      14  YawBrRDyt   (deg)       ElastoDyn
      15  YawBrRVxp   (deg/s)     ElastoDyn
      16  YawBrRVyp   (deg/s)     ElastoDyn
      17  YawBrRAxp   (deg/s^2)   ElastoDyn
      18  YawBrRAyp   (deg/s^2)   ElastoDyn
      19  RootMyc1    (kN·m)      ElastoDyn
      20  RootMxc1    (kN·m)      ElastoDyn
      21  RootFxc2    (kN)        ElastoDyn
      22  RootFyc2    (kN)        ElastoDyn
      23  Spn3MLxb1   (kN·m)      ElastoDyn
      24  Spn3MLyb1   (kN·m)      ElastoDyn
      25  RotTorq     (kN·m)      ElastoDyn
      26  YawBrMzn    (kN·m)      ElastoDyn
      27  TwrBsMzt    (kN·m)      ElastoDyn
