
FAST Summary File

Predictions were generated on 04-Dec-2014 at 12:11:20 using FAST (v8.09.00a-bjj, 30-Sep-2014), compiled for 32-bit systems using single precision
  compiled with
    NWTC Subroutine Library (v2.04.00a-bjj, 30-Sep-2014)
    ElastoDyn (v1.01.07a-bjj, 30-Sep-2014)
    AeroDyn (v14.03.00a-bjj, 30-Sep-2014)
    InflowWind (v2.00.01c-bjj, 30-Sep-2014)
    ServoDyn (v1.01.02a-bjj, 30-June-2014)
    HydroDyn (v2.02.00a-adp, 30-Sep-2014)
    SubDyn (unknown version, unknown date) [not called]
    MAP (0.97.01a-mdm, Mar-05-2014)
    FEAMooring (unknown version, unknown date) [not called]
    IceFloe (unknown version, unknown date) [not called]
    IceDyn (unknown version, unknown date) [not called]


Modeling a floating offshore turbine
Description from the FAST input file: 
  FAST Certification Test #25: NREL 5.0 MW Baseline Wind Turbine with OC4-DeepCwind semi configuration, for use in offshore analysis

Interpolation order for input/output time histories: 2 (quadratic)
Number of correction iterations:  0
Number of rows in Jacobian matrix used for coupling ElastoDyn to HydroDyn:     12


   Requested Time Steps  
  -------------------------------------------------
  Component          Time Step (s)    Subcycles (-)
  -----------------  ---------------  -------------
  FAST (glue code)    1.250E-02
  ElastoDyn           1.250E-02              1
  AeroDyn             1.250E-02              1
  ServoDyn            1.250E-02              1
  HydroDyn            1.250E-02              1
  MAP                 1.250E-02              1
  FAST output files   5.000E-02              4^-1


   Requested Channels in FAST Output File(s)  
  --------------------------------------------
  Number  Name        Units       Generated by
  ------  ----------  ----------  ------------
       1  Time        (s)         FAST
       2  WindVxi     (m/s)       InflowWind
       3  WindVyi     (m/s)       InflowWind
       4  WindVzi     (m/s)       InflowWind
       5  Azimuth     (deg)       ElastoDyn
       6  RotSpeed    (rpm)       ElastoDyn
       7  GenSpeed    (rpm)       ElastoDyn
       8  OoPDefl1    (m)         ElastoDyn
       9  IPDefl1     (m)         ElastoDyn
      10  TwstDefl1   (deg)       ElastoDyn
      11  BldPitch1   (deg)       ElastoDyn
      12  TTDspFA     (m)         ElastoDyn
      13  TTDspSS     (m)         ElastoDyn
      14  TTDspTwst   (deg)       ElastoDyn
      15  PtfmSurge   (m)         ElastoDyn
      16  PtfmSway    (m)         ElastoDyn
      17  PtfmHeave   (m)         ElastoDyn
      18  PtfmRoll    (deg)       ElastoDyn
      19  PtfmPitch   (deg)       ElastoDyn
      20  PtfmYaw     (deg)       ElastoDyn
      21  RootFxc1    (kN)        ElastoDyn
      22  RootFyc1    (kN)        ElastoDyn
      23  RootFzc1    (kN)        ElastoDyn
      24  RootMxc1    (kN·m)      ElastoDyn
      25  RootMyc1    (kN·m)      ElastoDyn
      26  RootMzc1    (kN·m)      ElastoDyn
      27  RotTorq     (kN·m)      ElastoDyn
      28  LSSGagMya   (kN·m)      ElastoDyn
      29  LSSGagMza   (kN·m)      ElastoDyn
      30  YawBrFxp    (kN)        ElastoDyn
      31  YawBrFyp    (kN)        ElastoDyn
      32  YawBrFzp    (kN)        ElastoDyn
      33  YawBrMxp    (kN·m)      ElastoDyn
      34  YawBrMyp    (kN·m)      ElastoDyn
      35  YawBrMzp    (kN·m)      ElastoDyn
      36  TwrBsFxt    (kN)        ElastoDyn
      37  TwrBsFyt    (kN)        ElastoDyn
      38  TwrBsFzt    (kN)        ElastoDyn
      39  TwrBsMxt    (kN·m)      ElastoDyn
      40  TwrBsMyt    (kN·m)      ElastoDyn
      41  TwrBsMzt    (kN·m)      ElastoDyn
      42  GenPwr      (kW)        ServoDyn
      43  GenTq       (kN·m)      ServoDyn
      44  Wave1Elev   (m)         HydroDyn
      45  TFair[1]    [kN]        MAP
      46  TAnch[1]    [kN]        MAP
      47  TFair[2]    [kN]        MAP
      48  TAnch[2]    [kN]        MAP
      49  TFair[3]    [kN]        MAP
      50  TAnch[3]    [kN]        MAP
