
FAST Summary File

Predictions were generated on 13-Apr-2016 at 14:09:14 using FAST (v8.15.00a-bjj, 12-Apr-2016), compiled as a 32-bit application using single precision
  compiled with
    NWTC Subroutine Library (v2.08.00, 5-Apr-2016)
    ElastoDyn (v1.03.02a-bjj, 8-Apr-2016)
    BeamDyn (unknown version, unknown date) [not called]
    InflowWind (v3.02.00a-bjj, 11-Apr-2016)
    AeroDyn14 (unknown version, unknown date) [not called]
    AeroDyn (v15.02.03, 12-Apr-2016)
    ServoDyn (v1.05.00a-bjj, 11-Mar-2016)
    HydroDyn (unknown version, unknown date) [not called]
    SubDyn (unknown version, unknown date) [not called]
    MAP (unknown version, unknown date) [not called]
    FEAMooring (unknown version, unknown date) [not called]
    MoorDyn (unknown version, unknown date) [not called]
    OrcaFlexInterface (unknown version, unknown date) [not called]
    IceFloe (unknown version, unknown date) [not called]
    IceDyn (unknown version, unknown date) [not called]


Modeling a land-based turbine
Description from the FAST input file: 
  FAST Certification Test #15: SWRT 3-bladed upwind turbine with many DOFs, variable speed control, free yaw, tail-furl, EOG01 event

Interpolation order for input/output time histories: 2 (quadratic)
Number of correction iterations:  0


   Requested Time Steps  
  -------------------------------------------------
  Component          Time Step (s)    Subcycles (-)
  -----------------  ---------------  -------------
  FAST (glue code)    1.000E-03
  InflowWind          1.000E-03              1
  ElastoDyn           1.000E-03              1
  AeroDyn             1.000E-03              1
  ServoDyn            1.000E-03              1
  FAST output files   8.000E-03              8^-1


   Requested Channels in FAST Output File(s)  
  --------------------------------------------
  Number  Name        Units       Generated by
  ------  ----------  ----------  ------------
       1  Time        (s)         FAST
       2  Wind1VelX   (m/s)       InflowWind
       3  Wind1VelY   (m/s)       InflowWind
       4  Wind1VelZ   (m/s)       InflowWind
       5  TipClrnc1   (m)         ElastoDyn
       6  TipClrnc2   (m)         ElastoDyn
       7  TipClrnc3   (m)         ElastoDyn
       8  RotSpeed    (rpm)       ElastoDyn
       9  TailFurlP   (deg)       ElastoDyn
      10  TailFurlV   (deg/s)     ElastoDyn
      11  TailFurlA   (deg/s^2)   ElastoDyn
      12  NacYawP     (deg)       ElastoDyn
      13  RotThrust   (kN)        ElastoDyn
      14  TFrlBrM     (kN·m)      ElastoDyn
      15  RtTSR       (-)         AeroDyn
      16  RtSkew      (deg)       AeroDyn
      17  RtAeroCp    (-)         AeroDyn
      18  RtAeroCq    (-)         AeroDyn
      19  RtAeroCt    (-)         AeroDyn
      20  RtAeroFxh   (N)         AeroDyn
      21  RtAeroFyh   (N)         AeroDyn
      22  RtAeroFzh   (N)         AeroDyn
      23  RtAeroMxh   (N·m)       AeroDyn
      24  RtAeroMyh   (N·m)       AeroDyn
      25  RtAeroMzh   (N·m)       AeroDyn
