
Predictions were generated on 26-Sep-2014 at 19:48:39 using FAST (v8.08.01a-bjj, 15-Aug-2014), compiled for 32-bit systems using single precision
 linked with  NWTC Subroutine Library (v2.04.00a-bjj, 30-Sep-2014); ElastoDyn (v1.01.07a-bjj, 30-Sep-2014); InflowWind (v2.00.01c-bjj, 30-Sep-2014); AeroDyn (v14.03.00a-bjj, 30-Sep-2014); ServoDyn (v1.01.02a-bjj, 30-June-2014)

Description from the FAST input file: FAST Certification Test #08: AOC 15/50 with many DOFs with fixed yaw error and steady wind. Many parameters are pure fiction.

Time      	WindVxi   	WindVyi   	WindVzi   	LSSGagPxa 	TipDxb1   	TipDxb2   	TipDyb1   	TipDyb2   	RollDefl1 	RollDefl2 	PtchDefl1 	PtchDefl2 	Spn1ALxb1 	Spn1ALyb1 	HSShftV   	TTDspRoll 	TTDspPtch 	YawBrRVxp 	YawBrRVyp 	YawBrRAxp 	YawBrRAyp 	RootFxb1  	RootFyb1  	Spn2MLxb1 	Spn2MLyb1 	LSShftFya 	LSShftFza 	YawBrFxn  	YawBrFyn  
(s)       	(m/s)     	(m/s)     	(m/s)     	(deg)     	(m)       	(m)       	(m)       	(m)       	(deg)     	(deg)     	(deg)     	(deg)     	(m/s^2)   	(m/s^2)   	(rpm)     	(deg)     	(deg)     	(deg/s)   	(deg/s)   	(deg/s^2) 	(deg/s^2) 	(kN)      	(kN)      	(kN·m)    	(kN·m)    	(kN)      	(kN)      	(kN)      	(kN)      
   10.0000	 9.526E+00	-5.500E+00	 0.000E+00	 2.484E+02	 1.054E-02	-7.870E-03	 1.723E-03	-2.726E-03	-2.690E-02	 3.655E-02	 1.006E-01	-2.208E-01	 4.958E+00	 5.409E-01	 1.812E+03	 3.869E-02	 1.052E-01	-4.819E-03	-5.533E-02	-5.164E-01	-1.524E+00	 3.391E-01	 8.467E-01	-3.126E-01	 4.308E-01	 6.042E+00	 2.391E+00	 6.643E+00	-9.247E-02
   10.0500	 9.526E+00	-5.500E+00	 0.000E+00	 2.676E+02	 6.230E-03	-8.657E-03	 2.361E-03	-4.880E-03	-3.595E-02	 6.709E-02	 1.385E-02	-2.260E-01	 5.043E+00	 6.028E-01	 1.812E+03	 3.802E-02	 1.015E-01	-2.114E-02	-7.914E-02	-3.451E-01	 1.819E-01	 2.419E-01	 9.438E-01	-3.823E-01	 2.454E-01	 6.457E+00	 1.891E-01	 6.348E+00	-1.300E-01
   10.1000	 9.526E+00	-5.500E+00	 0.000E+00	 2.869E+02	 5.602E-04	-5.534E-03	 2.530E-03	-6.414E-03	-3.808E-02	 8.863E-02	-8.625E-02	-1.665E-01	 5.186E+00	 5.853E-01	 1.812E+03	 3.652E-02	 9.718E-02	-3.779E-02	-1.092E-01	-1.743E-01	-1.123E+00	 6.214E-02	 9.068E-01	-3.582E-01	 3.751E-02	 6.221E+00	-1.944E+00	 6.040E+00	-1.019E-01
   10.1500	 9.526E+00	-5.500E+00	 0.000E+00	 3.061E+02	-6.139E-04	-3.373E-03	 1.625E-03	-7.611E-03	-2.535E-02	 1.054E-01	-1.087E-01	-1.274E-01	 5.327E+00	 6.385E-01	 1.812E+03	 3.478E-02	 9.214E-02	-3.225E-02	-7.691E-02	-2.820E-01	-1.424E-01	 1.230E-02	 6.965E-01	-2.123E-01	-1.105E-03	 5.209E+00	-3.951E+00	 5.657E+00	-1.266E-01
   10.2000	 9.526E+00	-5.500E+00	 0.000E+00	 3.254E+02	 9.757E-05	-4.859E-03	 6.943E-04	-8.178E-03	-1.176E-02	 1.130E-01	-7.554E-02	-1.684E-01	 5.428E+00	 6.804E-01	 1.812E+03	 3.308E-02	 8.764E-02	-2.525E-02	-7.257E-02	 4.574E-01	 1.960E+00	-5.677E-02	 4.208E-01	-9.226E-02	 4.489E-02	 3.742E+00	-5.402E+00	 5.306E+00	-4.174E-02
   10.2500	 9.526E+00	-5.500E+00	 0.000E+00	 3.446E+02	-3.656E-03	-6.912E-03	-1.039E-03	-7.657E-03	 1.290E-02	 1.053E-01	-1.367E-01	-2.233E-01	 5.499E+00	 6.693E-01	 1.812E+03	 3.165E-02	 8.496E-02	-3.270E-02	-4.463E-02	 4.315E-01	 1.443E+00	-2.306E-01	-8.949E-03	 2.018E-01	-7.734E-02	 1.704E+00	-6.249E+00	 5.330E+00	-1.275E-02
   10.3000	 9.526E+00	-5.500E+00	 0.000E+00	 3.853E+00	-9.285E-03	-5.667E-03	-2.227E-03	-7.172E-03	 2.977E-02	 9.832E-02	-2.394E-01	-2.067E-01	 5.492E+00	 6.304E-01	 1.812E+03	 3.086E-02	 8.521E-02	-5.203E-03	 3.467E-02	 8.448E-02	 5.282E-02	-4.147E-01	-4.170E-01	 3.967E-01	-2.784E-01	-4.054E-01	-6.477E+00	 5.473E+00	 3.350E-02
   10.3500	 9.526E+00	-5.500E+00	 0.000E+00	 2.310E+01	-1.052E-02	-2.156E-03	-4.199E-03	-5.905E-03	 5.751E-02	 8.053E-02	-2.629E-01	-1.373E-01	 5.447E+00	 5.968E-01	 1.812E+03	 3.093E-02	 8.755E-02	 1.145E-02	 7.413E-02	 3.772E-01	 1.474E+00	-4.758E-01	-8.848E-01	 6.954E-01	-3.026E-01	-2.518E+00	-5.906E+00	 5.513E+00	 6.003E-02
   10.4000	 9.526E+00	-5.500E+00	 0.000E+00	 4.234E+01	-6.504E-03	-8.902E-04	-6.068E-03	-4.322E-03	 8.370E-02	 5.833E-02	-1.878E-01	-1.111E-01	 5.231E+00	 5.919E-01	 1.812E+03	 3.184E-02	 9.254E-02	 2.255E-02	 1.037E-01	 1.460E-01	-8.609E-01	-3.715E-01	-1.287E+00	 9.179E-01	-1.418E-01	-4.389E+00	-4.814E+00	 5.774E+00	 8.116E-02
   10.4500	 9.526E+00	-5.500E+00	 0.000E+00	 6.158E+01	-2.248E-03	-3.442E-03	-7.357E-03	-2.035E-03	 1.019E-01	 2.691E-02	-1.009E-01	-1.321E-01	 5.169E+00	 5.548E-01	 1.812E+03	 3.340E-02	 9.741E-02	 4.235E-02	 1.143E-01	 2.150E-01	 1.037E+00	-3.020E-01	-1.569E+00	 1.055E+00	 1.959E-02	-5.760E+00	-3.026E+00	 5.849E+00	 1.773E-02
   10.5000	 9.526E+00	-5.500E+00	 0.000E+00	 8.082E+01	-2.660E-03	-5.376E-03	-8.289E-03	-3.930E-04	 1.146E-01	 2.980E-03	-1.266E-01	-2.025E-01	 5.091E+00	 6.040E-01	 1.812E+03	 3.536E-02	 1.020E-01	 3.973E-02	 6.039E-02	 3.817E-01	-1.353E-01	-2.883E-01	-1.765E+00	 1.183E+00	-1.803E-02	-6.541E+00	-1.057E+00	 6.154E+00	 3.440E-02
   10.5500	 9.526E+00	-5.500E+00	 0.000E+00	 1.001E+02	-5.302E-03	 1.693E-03	-7.831E-03	 5.096E-04	 1.077E-01	-1.034E-02	-1.934E-01	-8.987E-02	 5.008E+00	 6.206E-01	 1.812E+03	 3.715E-02	 1.045E-01	 1.946E-02	 1.662E-02	-6.338E-01	-1.431E+00	-3.262E-01	-1.730E+00	 1.118E+00	-1.241E-01	-6.416E+00	 1.141E+00	 6.506E+00	-3.115E-02
   10.6000	 9.526E+00	-5.500E+00	 0.000E+00	 1.193E+02	-5.564E-03	 9.801E-03	-7.416E-03	 1.644E-03	 1.017E-01	-2.565E-02	-2.067E-01	 9.136E-02	 5.019E+00	 6.146E-01	 1.812E+03	 3.801E-02	 1.049E-01	 1.512E-02	 1.782E-03	-4.714E-01	-1.316E+00	-2.987E-01	-1.606E+00	 1.064E+00	-1.409E-01	-5.701E+00	 3.221E+00	 6.601E+00	-7.600E-02
   10.6500	 9.526E+00	-5.500E+00	 0.000E+00	 1.385E+02	-2.645E-03	 9.361E-03	-6.283E-03	 1.918E-03	 8.582E-02	-2.900E-02	-1.479E-01	 1.026E-01	 5.040E+00	 5.763E-01	 1.812E+03	 3.817E-02	 1.033E-01	-4.446E-03	-5.309E-02	-2.222E-01	-2.753E-01	-2.186E-01	-1.304E+00	 8.769E-01	-3.404E-02	-4.250E+00	 4.852E+00	 6.462E+00	-9.306E-02
   10.7000	 9.526E+00	-5.500E+00	 0.000E+00	 1.578E+02	-8.122E-04	 2.536E-03	-4.699E-03	 2.679E-03	 6.360E-02	-4.044E-02	-1.107E-01	-5.839E-02	 5.120E+00	 5.923E-01	 1.812E+03	 3.752E-02	 1.004E-01	-2.291E-02	-6.505E-02	-3.845E-01	-8.103E-01	-1.767E-01	-9.023E-01	 6.441E-01	 2.781E-02	-2.398E+00	 6.061E+00	 6.262E+00	-1.177E-01
   10.7500	 9.526E+00	-5.500E+00	 0.000E+00	 1.770E+02	-2.096E-03	-9.126E-04	-2.732E-03	 2.119E-03	 3.665E-02	-3.277E-02	-1.083E-01	-1.333E-01	 5.100E+00	 6.359E-01	 1.812E+03	 3.611E-02	 9.602E-02	-2.777E-02	-9.216E-02	 1.620E-01	 9.236E-01	-1.992E-01	-4.445E-01	 3.874E-01	-1.048E-01	-2.651E-01	 6.465E+00	 5.890E+00	-1.118E-01
   10.8000	 9.526E+00	-5.500E+00	 0.000E+00	 1.963E+02	-5.753E-03	 4.315E-04	-5.450E-04	 1.141E-03	 4.366E-03	-1.812E-02	-2.391E-01	-7.205E-02	 5.286E+00	 5.993E-01	 1.812E+03	 3.463E-02	 9.197E-02	-3.409E-02	-9.715E-02	 1.878E-01	-4.687E-01	-1.399E-01	 2.894E-02	 1.033E-01	-1.714E-01	 1.918E+00	 6.321E+00	 5.672E+00	-8.188E-02
   10.8500	 9.526E+00	-5.500E+00	 0.000E+00	 2.155E+02	-3.987E-04	-8.954E-04	 1.500E-04	-1.965E-04	-5.178E-03	 1.152E-03	-1.265E-01	-7.970E-02	 5.327E+00	 6.300E-01	 1.812E+03	 3.326E-02	 8.814E-02	-3.073E-02	-6.006E-02	-5.837E-01	-3.215E-01	 1.370E-02	 3.590E-01	-1.055E-02	 4.222E-02	 3.772E+00	 5.308E+00	 5.536E+00	-5.163E-02
   10.9000	 9.526E+00	-5.500E+00	 0.000E+00	 2.348E+02	 8.125E-03	-6.642E-03	 1.500E-03	-1.739E-03	-2.307E-02	 2.282E-02	 8.053E-02	-1.914E-01	 5.446E+00	 6.652E-01	 1.812E+03	 3.173E-02	 8.587E-02	-1.794E-02	-4.487E-03	 5.359E-01	 1.729E+00	 1.314E-01	 7.239E-01	-2.739E-01	 3.768E-01	 5.320E+00	 3.746E+00	 5.398E+00	-1.099E-02
   10.9500	 9.526E+00	-5.500E+00	 0.000E+00	 2.540E+02	 8.981E-03	-1.091E-02	 1.804E-03	-3.106E-03	-2.746E-02	 4.191E-02	 9.280E-02	-2.793E-01	 5.437E+00	 6.801E-01	 1.812E+03	 3.115E-02	 8.656E-02	-5.780E-03	 2.546E-02	 3.943E-01	 8.247E-01	 1.806E-01	 8.713E-01	-3.029E-01	 3.815E-01	 6.172E+00	 1.805E+00	 5.493E+00	 5.056E-02
   11.0000	 9.526E+00	-5.500E+00	 0.000E+00	 2.732E+02	 2.522E-03	-8.903E-03	 2.665E-03	-5.331E-03	-4.041E-02	 7.342E-02	-6.526E-02	-2.317E-01	 5.373E+00	 6.478E-01	 1.812E+03	 3.133E-02	 8.933E-02	 1.147E-02	 8.747E-02	 2.385E-01	 9.080E-01	 1.386E-01	 9.579E-01	-4.025E-01	 1.018E-01	 6.459E+00	-3.957E-01	 5.599E+00	 5.092E-02
   11.0500	 9.526E+00	-5.500E+00	 0.000E+00	 2.925E+02	-1.739E-03	-3.876E-03	 2.427E-03	-6.735E-03	-3.697E-02	 9.325E-02	-1.439E-01	-1.300E-01	 5.339E+00	 6.175E-01	 1.812E+03	 3.216E-02	 9.355E-02	 2.420E-02	 7.599E-02	 5.170E-01	 5.055E-01	 3.293E-02	 8.605E-01	-3.250E-01	-5.311E-02	 5.982E+00	-2.495E+00	 5.754E+00	 6.896E-02
   11.1000	 9.526E+00	-5.500E+00	 0.000E+00	 3.117E+02	-4.449E-04	-2.175E-03	 1.415E-03	-7.983E-03	-2.207E-02	 1.104E-01	-9.253E-02	-1.136E-01	 5.228E+00	 5.479E-01	 1.812E+03	 3.382E-02	 9.829E-02	 3.326E-02	 8.436E-02	-1.811E-01	-1.915E+00	-2.151E-02	 6.401E-01	-1.810E-01	 1.741E-02	 4.886E+00	-4.431E+00	 6.083E+00	 3.300E-02
   11.1500	 9.526E+00	-5.500E+00	 0.000E+00	 3.310E+02	 3.921E-04	-4.208E-03	 2.413E-04	-8.095E-03	-5.181E-03	 1.117E-01	-6.168E-02	-1.612E-01	 5.079E+00	 5.957E-01	 1.812E+03	 3.570E-02	 1.016E-01	 3.868E-02	 6.208E-02	-5.885E-01	-9.117E-01	-6.183E-02	 3.156E-01	-2.299E-02	 6.529E-02	 3.221E+00	-5.720E+00	 6.235E+00	 1.042E-02
   11.2000	 9.526E+00	-5.500E+00	 0.000E+00	 3.502E+02	-3.454E-03	-5.982E-03	-1.562E-03	-7.647E-03	 2.017E-02	 1.051E-01	-1.361E-01	-2.099E-01	 5.050E+00	 6.130E-01	 1.812E+03	 3.690E-02	 1.032E-01	 2.042E-02	 2.291E-02	 2.579E-01	 4.990E-01	-1.871E-01	-1.376E-01	 2.719E-01	-7.031E-02	 1.082E+00	-6.434E+00	 6.370E+00	-3.773E-02
   11.2500	 9.526E+00	-5.500E+00	 0.000E+00	 9.452E+00	-8.122E-03	-4.115E-03	-2.811E-03	-6.935E-03	 3.773E-02	 9.493E-02	-2.264E-01	-1.785E-01	 5.004E+00	 6.173E-01	 1.812E+03	 3.776E-02	 1.037E-01	 7.238E-03	-2.038E-02	-3.391E-01	-1.179E+00	-3.190E-01	-5.594E-01	 4.650E-01	-2.383E-01	-1.060E+00	-6.404E+00	 6.540E+00	-6.203E-02
   11.3000	 9.526E+00	-5.500E+00	 0.000E+00	 2.869E+01	-8.257E-03	-1.227E-03	-5.004E-03	-5.447E-03	 6.882E-02	 7.405E-02	-2.187E-01	-1.216E-01	 5.105E+00	 6.396E-01	 1.812E+03	 3.781E-02	 1.020E-01	-5.850E-03	-3.734E-02	-3.871E-01	-5.124E-03	-3.975E-01	-1.037E+00	 7.931E-01	-2.176E-01	-3.171E+00	-5.642E+00	 6.382E+00	-1.134E-01
   11.3500	 9.526E+00	-5.500E+00	 0.000E+00	 4.794E+01	-4.964E-03	-1.327E-03	-6.495E-03	-3.776E-03	 8.979E-02	 5.057E-02	-1.546E-01	-1.227E-01	 5.136E+00	 6.336E-01	 1.812E+03	 3.703E-02	 9.942E-02	-2.335E-02	-8.001E-02	-9.477E-02	-9.549E-01	-3.444E-01	-1.385E+00	 9.601E-01	-8.460E-02	-4.865E+00	-4.326E+00	 6.174E+00	-9.515E-02
   11.4000	 9.526E+00	-5.500E+00	 0.000E+00	 6.718E+01	-3.141E-03	-5.189E-03	-7.698E-03	-1.228E-03	 1.065E-01	 1.445E-02	-1.253E-01	-2.091E-01	 5.230E+00	 6.470E-01	 1.812E+03	 3.594E-02	 9.572E-02	-2.419E-02	-6.404E-02	-4.893E-01	-8.768E-01	-3.173E-01	-1.653E+00	 1.108E+00	-2.353E-02	-6.087E+00	-2.430E+00	 5.892E+00	-1.364E-01
   11.4500	 9.526E+00	-5.500E+00	 0.000E+00	 8.642E+01	-4.762E-03	-3.652E-03	-8.173E-03	-2.744E-04	 1.129E-01	 1.728E-03	-1.676E-01	-1.531E-01	 5.366E+00	 6.192E-01	 1.812E+03	 3.458E-02	 9.160E-02	-2.188E-02	-7.392E-02	 7.001E-02	 1.035E+00	-3.701E-01	-1.770E+00	 1.176E+00	-9.646E-02	-6.570E+00	-4.186E-01	 5.558E+00	-6.835E-02
   11.5000	 9.526E+00	-5.500E+00	 0.000E+00	 1.057E+02	-6.763E-03	 4.771E-03	-7.656E-03	 9.127E-04	 1.053E-01	-1.525E-02	-2.208E-01	-9.461E-04	 5.435E+00	 5.928E-01	 1.812E+03	 3.306E-02	 8.818E-02	-3.480E-02	-5.855E-02	 4.494E-01	 1.502E+00	-3.937E-01	-1.699E+00	 1.105E+00	-1.782E-01	-6.232E+00	 1.771E+00	 5.512E+00	-3.974E-02
   11.5500	 9.526E+00	-5.500E+00	 0.000E+00	 1.249E+02	-5.480E-03	 9.750E-03	-7.135E-03	 1.708E-03	 9.779E-02	-2.680E-02	-2.030E-01	 8.120E-02	 5.435E+00	 6.379E-01	 1.812E+03	 3.192E-02	 8.711E-02	-1.659E-02	-2.042E-03	 9.564E-02	 2.172E-01	-3.291E-01	-1.534E+00	 1.022E+00	-1.347E-01	-5.331E+00	 3.690E+00	 5.582E+00	 7.345E-03
   11.6000	 9.526E+00	-5.500E+00	 0.000E+00	 1.441E+02	-2.192E-03	 6.140E-03	-5.799E-03	 2.225E-03	 7.904E-02	-3.365E-02	-1.385E-01	 2.700E-02	 5.357E+00	 6.333E-01	 1.812E+03	 3.141E-02	 8.778E-02	-1.966E-03	 3.813E-02	 2.872E-01	 1.308E+00	-2.151E-01	-1.195E+00	 8.019E-01	-2.107E-02	-3.754E+00	 5.218E+00	 5.530E+00	 3.517E-02
   11.6500	 9.526E+00	-5.500E+00	 0.000E+00	 1.634E+02	-1.122E-03	-3.034E-04	-4.224E-03	 2.727E-03	 5.694E-02	-4.079E-02	-1.160E-01	-1.007E-01	 5.319E+00	 6.708E-01	 1.812E+03	 3.162E-02	 9.096E-02	 8.702E-03	 6.831E-02	 1.825E-01	-7.587E-01	-2.036E-01	-7.849E-01	 5.804E-01	 9.595E-03	-1.860E+00	 6.243E+00	 5.676E+00	 7.208E-02
   11.7000	 9.526E+00	-5.500E+00	 0.000E+00	 1.826E+02	-3.523E-03	-1.827E-03	-1.894E-03	 1.889E-03	 2.492E-02	-2.924E-02	-1.342E-01	-1.395E-01	 5.089E+00	 6.776E-01	 1.812E+03	 3.258E-02	 9.449E-02	 3.149E-02	 9.502E-02	 1.833E-01	 8.677E-01	-2.909E-01	-2.688E-01	 2.874E-01	-7.150E-02	 3.750E-01	 6.491E+00	 5.724E+00	 2.194E-02
   11.7500	 9.526E+00	-5.500E+00	 0.000E+00	 2.019E+02	-4.738E-03	 5.310E-04	-3.998E-04	 9.372E-04	 3.198E-03	-1.525E-02	-1.853E-01	-6.989E-02	 5.285E+00	 6.440E-01	 1.812E+03	 3.410E-02	 9.827E-02	 3.554E-02	 5.707E-02	 5.333E-01	 5.574E-01	-2.209E-01	 1.171E-01	 9.389E-02	-1.135E-01	 2.452E+00	 6.141E+00	 5.926E+00	 5.080E-02
   11.8000	 9.526E+00	-5.500E+00	 0.000E+00	 2.211E+02	 2.125E-03	-1.201E-03	 5.910E-04	-7.883E-04	-1.145E-02	 9.346E-03	-8.028E-02	-9.042E-02	 5.063E+00	 5.967E-01	 1.812E+03	 3.577E-02	 1.010E-01	 1.958E-02	 2.908E-02	-4.047E-01	-1.007E+00	 1.233E-01	 4.782E-01	-9.778E-02	 1.316E-01	 4.282E+00	 4.906E+00	 6.309E+00	-4.654E-03
   11.8500	 9.526E+00	-5.500E+00	 0.000E+00	 2.404E+02	 9.358E-03	-6.359E-03	 1.700E-03	-2.144E-03	-2.652E-02	 2.856E-02	 7.990E-02	-1.843E-01	 5.017E+00	 5.520E-01	 1.812E+03	 3.683E-02	 1.025E-01	 2.224E-02	 2.842E-02	-3.507E-01	-1.057E+00	 2.878E-01	 7.946E-01	-3.109E-01	 3.970E-01	 5.686E+00	 3.231E+00	 6.459E+00	-4.666E-02
   11.9000	 9.526E+00	-5.500E+00	 0.000E+00	 2.596E+02	 8.661E-03	-9.096E-03	 1.976E-03	-3.900E-03	-2.977E-02	 5.315E-02	 9.041E-02	-2.410E-01	 5.084E+00	 6.035E-01	 1.812E+03	 3.748E-02	 1.024E-01	 6.483E-03	-2.123E-02	-2.148E-01	-2.713E-01	 1.905E-01	 9.101E-01	-3.270E-01	 3.641E-01	 6.347E+00	 1.141E+00	 6.410E+00	-7.117E-02
   11.9500	 9.526E+00	-5.500E+00	 0.000E+00	 2.788E+02	 2.313E-03	-6.716E-03	 2.682E-03	-5.924E-03	-4.041E-02	 8.163E-02	-6.012E-02	-1.936E-01	 5.103E+00	 5.627E-01	 1.812E+03	 3.745E-02	 1.013E-01	-9.296E-03	-2.991E-02	-4.176E-01	-1.184E+00	 1.277E-01	 9.536E-01	-4.014E-01	 9.783E-02	 6.438E+00	-1.065E+00	 6.316E+00	-9.982E-02
   12.0000	 9.526E+00	-5.500E+00	 0.000E+00	 2.981E+02	-6.627E-04	-3.113E-03	 2.052E-03	-7.130E-03	-3.187E-02	 9.877E-02	-1.294E-01	-1.168E-01	 5.172E+00	 6.550E-01	 1.812E+03	 3.668E-02	 9.834E-02	-1.497E-02	-6.420E-02	 2.263E-01	 1.100E+00	 9.327E-02	 7.915E-01	-2.769E-01	-1.396E-02	 5.684E+00	-3.103E+00	 5.990E+00	-1.052E-01
   12.0500	 9.526E+00	-5.500E+00	 0.000E+00	 3.173E+02	 7.243E-04	-3.519E-03	 1.091E-03	-8.191E-03	-1.742E-02	 1.132E-01	-6.680E-02	-1.436E-01	 5.254E+00	 6.206E-01	 1.812E+03	 3.570E-02	 9.518E-02	-2.586E-02	-8.690E-02	 1.763E-01	-3.209E-01	-3.189E-03	 5.546E-01	-1.485E-01	 5.860E-02	 4.437E+00	-4.908E+00	 5.827E+00	-9.115E-02
   12.1000	 9.526E+00	-5.500E+00	 0.000E+00	 3.366E+02	-9.414E-04	-6.079E-03	-3.171E-04	-7.858E-03	 2.836E-03	 1.083E-01	-8.100E-02	-2.027E-01	 5.308E+00	 6.653E-01	 1.812E+03	 3.456E-02	 9.150E-02	-3.126E-02	-7.126E-02	-6.583E-01	-6.488E-01	-1.444E-01	 1.788E-01	 7.358E-02	 2.084E-02	 2.592E+00	-5.972E+00	 5.750E+00	-7.299E-02
   12.1500	 9.526E+00	-5.500E+00	 0.000E+00	 3.558E+02	-6.606E-03	-6.627E-03	-1.824E-03	-7.460E-03	 2.402E-02	 1.024E-01	-1.905E-01	-2.230E-01	 5.410E+00	 6.545E-01	 1.812E+03	 3.299E-02	 8.871E-02	-2.101E-02	-1.947E-02	 2.955E-01	 1.037E+00	-3.244E-01	-2.540E-01	 3.289E-01	-1.825E-01	 4.602E-01	-6.498E+00	 5.593E+00	-3.774E-02
   12.2000	 9.526E+00	-5.500E+00	 0.000E+00	 1.505E+01	-1.059E-02	-3.639E-03	-3.249E-03	-6.527E-03	 4.392E-02	 8.929E-02	-2.728E-01	-1.659E-01	 5.409E+00	 6.167E-01	 1.812E+03	 3.203E-02	 8.803E-02	-1.523E-02	-4.155E-03	 3.766E-01	 1.055E+00	-4.286E-01	-6.860E-01	 5.522E-01	-3.204E-01	-1.647E+00	-6.213E+00	 5.564E+00	 2.331E-02
   12.2500	 9.526E+00	-5.500E+00	 0.000E+00	 3.429E+01	-8.705E-03	-1.067E-03	-5.436E-03	-4.980E-03	 7.487E-02	 6.756E-02	-2.285E-01	-1.153E-01	 5.384E+00	 6.064E-01	 1.812E+03	 3.169E-02	 8.936E-02	-1.255E-03	 5.370E-02	 1.339E-01	 5.572E-01	-4.347E-01	-1.144E+00	 8.553E-01	-2.271E-01	-3.678E+00	-5.334E+00	 5.606E+00	 3.328E-02
   12.3000	 9.526E+00	-5.500E+00	 0.000E+00	 5.353E+01	-4.065E-03	-1.906E-03	-6.775E-03	-3.203E-03	 9.385E-02	 4.265E-02	-1.327E-01	-1.286E-01	 5.377E+00	 5.689E-01	 1.812E+03	 3.188E-02	 9.193E-02	 1.362E-02	 5.277E-02	 6.039E-01	 1.015E+00	-3.608E-01	-1.453E+00	 9.891E-01	-4.472E-02	-5.208E+00	-3.827E+00	 5.673E+00	 6.043E-02
   12.3500	 9.526E+00	-5.500E+00	 0.000E+00	 7.278E+01	-2.669E-03	-6.301E-03	-8.013E-03	-7.058E-04	 1.108E-01	 6.393E-03	-1.243E-01	-2.585E-01	 5.204E+00	 6.363E-01	 1.812E+03	 3.301E-02	 9.563E-02	 2.295E-02	 6.320E-02	-3.728E-02	-1.581E+00	-2.891E-01	-1.712E+00	 1.147E+00	-1.224E-02	-6.322E+00	-1.900E+00	 5.909E+00	 3.772E-02
   12.4000	 9.526E+00	-5.500E+00	 0.000E+00	 9.202E+01	-4.506E-03	-2.018E-03	-8.046E-03	-4.329E-05	 1.110E-01	-2.074E-03	-1.682E-01	-1.431E-01	 5.150E+00	 6.317E-01	 1.812E+03	 3.456E-02	 9.842E-02	 3.339E-02	 5.872E-02	-5.802E-01	-8.343E-01	-3.320E-01	-1.760E+00	 1.146E+00	-9.266E-02	-6.551E+00	 1.843E-01	 6.062E+00	 2.646E-02
   12.4500	 9.526E+00	-5.500E+00	 0.000E+00	 1.113E+02	-5.876E-03	 7.322E-03	-7.634E-03	 1.328E-03	 1.049E-01	-2.058E-02	-2.070E-01	 6.777E-02	 5.122E+00	 5.824E-01	 1.812E+03	 3.564E-02	 1.002E-01	 2.257E-02	 3.758E-02	 3.719E-01	 8.238E-01	-3.352E-01	-1.672E+00	 1.098E+00	-1.491E-01	-6.072E+00	 2.385E+00	 6.199E+00	-1.426E-02
   12.5000	 9.526E+00	-5.500E+00	 0.000E+00	 1.305E+02	-3.871E-03	 1.012E-02	-6.865E-03	 1.754E-03	 9.400E-02	-2.712E-02	-1.721E-01	 1.006E-01	 5.096E+00	 6.068E-01	 1.812E+03	 3.672E-02	 1.017E-01	 1.454E-02	 4.711E-03	-2.123E-01	-9.073E-01	-2.601E-01	-1.451E+00	 9.713E-01	-7.695E-02	-4.935E+00	 4.199E+00	 6.414E+00	-3.509E-02
   12.5500	 9.526E+00	-5.500E+00	 0.000E+00	 1.497E+02	-1.222E-03	 4.879E-03	-5.358E-03	 2.491E-03	 7.278E-02	-3.794E-02	-1.220E-01	-1.852E-02	 5.079E+00	 5.917E-01	 1.812E+03	 3.723E-02	 1.015E-01	 4.412E-03	-6.163E-03	-3.214E-01	 1.154E-01	-1.603E-01	-1.077E+00	 7.347E-01	 1.294E-02	-3.202E+00	 5.627E+00	 6.341E+00	-9.286E-02
   12.6000	 9.526E+00	-5.500E+00	 0.000E+00	 1.690E+02	-1.441E-03	-5.437E-05	-3.672E-03	 2.491E-03	 4.910E-02	-3.766E-02	-1.256E-01	-1.034E-01	 5.122E+00	 5.961E-01	 1.812E+03	 3.704E-02	 1.004E-01	-1.118E-02	-5.402E-02	-1.132E-01	-1.100E+00	-1.815E-01	-6.420E-01	 5.116E-01	 1.523E-03	-1.195E+00	 6.402E+00	 6.219E+00	-8.555E-02
   12.6500	 9.526E+00	-5.500E+00	 0.000E+00	 1.882E+02	-5.042E-03	-2.206E-05	-1.126E-03	 1.495E-03	 1.287E-02	-2.337E-02	-2.121E-01	-9.168E-02	 5.218E+00	 5.789E-01	 1.812E+03	 3.653E-02	 9.794E-02	-1.390E-02	-4.414E-02	-5.299E-01	-1.458E+00	-1.545E-01	-1.362E-01	 1.581E-01	-1.674E-01	 1.052E+00	 6.483E+00	 6.055E+00	-1.291E-01
   12.7000	 9.526E+00	-5.500E+00	 0.000E+00	 2.075E+02	-2.811E-03	 7.446E-04	-2.745E-04	 5.054E-04	 1.761E-03	-9.037E-03	-1.355E-01	-6.043E-02	 5.358E+00	 6.203E-01	 1.812E+03	 3.561E-02	 9.443E-02	-1.486E-02	-6.125E-02	-5.687E-02	 1.049E+00	-1.934E-01	 2.097E-01	 7.318E-02	-2.864E-02	 3.024E+00	 5.836E+00	 5.733E+00	-8.194E-02
   12.7500	 9.526E+00	-5.500E+00	 0.000E+00	 2.267E+02	 5.279E-03	-3.519E-03	 1.016E-03	-1.267E-03	-1.660E-02	 1.603E-02	 1.263E-02	-1.367E-01	 5.359E+00	 6.380E-01	 1.812E+03	 3.425E-02	 9.117E-02	-3.414E-02	-6.670E-02	 4.298E-01	 1.365E+00	 9.050E-02	 5.898E-01	-1.876E-01	 2.576E-01	 4.750E+00	 4.425E+00	 5.682E+00	-6.256E-02
   12.8000	 9.526E+00	-5.500E+00	 0.000E+00	 2.460E+02	 9.539E-03	-9.258E-03	 1.721E-03	-2.414E-03	-2.702E-02	 3.231E-02	 7.547E-02	-2.421E-01	 5.275E+00	 6.150E-01	 1.812E+03	 3.305E-02	 8.956E-02	-2.106E-02	-2.072E-02	-7.178E-02	-2.987E-01	 3.044E-01	 8.271E-01	-3.080E-01	 3.935E-01	 5.913E+00	 2.662E+00	 5.735E+00	-1.617E-02
   12.8500	 9.526E+00	-5.500E+00	 0.000E+00	 2.652E+02	 5.930E-03	-1.021E-02	 2.279E-03	-4.477E-03	-3.449E-02	 6.145E-02	 1.987E-02	-2.550E-01	 5.370E+00	 6.791E-01	 1.812E+03	 3.217E-02	 8.897E-02	-1.144E-02	 1.303E-02	 2.301E-01	 1.401E+00	 1.586E-01	 9.337E-01	-3.618E-01	 2.461E-01	 6.407E+00	 5.147E-01	 5.599E+00	 1.000E-02
   12.9000	 9.526E+00	-5.500E+00	 0.000E+00	 2.844E+02	-6.388E-05	-6.322E-03	 2.664E-03	-6.195E-03	-3.986E-02	 8.553E-02	-9.427E-02	-1.827E-01	 5.416E+00	 5.962E-01	 1.812E+03	 3.184E-02	 9.077E-02	-2.719E-03	 3.667E-02	 2.005E-01	-7.264E-01	 1.151E-02	 9.253E-01	-3.763E-01	 1.366E-02	 6.300E+00	-1.627E+00	 5.665E+00	 5.883E-02
   12.9500	 9.526E+00	-5.500E+00	 0.000E+00	 3.037E+02	-1.534E-03	-2.733E-03	 1.825E-03	-7.458E-03	-2.830E-02	 1.033E-01	-1.320E-01	-1.117E-01	 5.390E+00	 6.243E-01	 1.812E+03	 3.225E-02	 9.298E-02	 2.064E-02	 7.406E-02	 1.677E-01	 5.562E-01	 9.045E-03	 7.309E-01	-2.358E-01	-4.313E-02	 5.377E+00	-3.660E+00	 5.678E+00	 2.772E-02
   13.0000	 9.526E+00	-5.500E+00	 0.000E+00	 3.229E+02	 1.562E-04	-3.477E-03	 8.961E-04	-8.250E-03	-1.470E-02	 1.141E-01	-7.822E-02	-1.416E-01	 5.242E+00	 6.027E-01	 1.812E+03	 3.331E-02	 9.577E-02	 2.850E-02	 4.574E-02	 5.245E-01	 8.453E-01	-2.627E-02	 4.776E-01	-1.193E-01	 4.575E-02	 4.002E+00	-5.256E+00	 5.767E+00	 5.845E-02
   13.0500	 9.526E+00	-5.500E+00	 0.000E+00	 3.422E+02	-1.974E-03	-5.773E-03	-8.565E-04	-7.762E-03	 1.032E-02	 1.068E-01	-1.046E-01	-2.019E-01	 5.181E+00	 6.122E-01	 1.812E+03	 3.462E-02	 9.806E-02	 1.585E-02	 2.717E-02	-8.392E-02	-2.466E-01	-1.571E-01	 5.052E-02	 1.622E-01	-1.601E-02	 1.994E+00	-6.188E+00	 6.113E+00	 1.605E-02
   13.1000	 9.526E+00	-5.500E+00	 0.000E+00	 1.406E+00	-6.900E-03	-5.314E-03	-2.185E-03	-7.335E-03	 2.915E-02	 1.006E-01	-1.942E-01	-2.015E-01	 5.119E+00	 6.097E-01	 1.812E+03	 3.571E-02	 1.000E-01	 2.368E-02	 3.884E-02	-3.449E-01	-1.198E+00	-3.176E-01	-3.711E-01	 3.740E-01	-1.930E-01	-1.532E-01	-6.529E+00	 6.335E+00	-1.948E-02
   13.1500	 9.526E+00	-5.500E+00	 0.000E+00	 2.065E+01	-9.029E-03	-2.235E-03	-4.025E-03	-6.113E-03	 5.495E-02	 8.343E-02	-2.380E-01	-1.401E-01	 5.099E+00	 6.139E-01	 1.812E+03	 3.658E-02	 1.008E-01	 1.473E-02	 6.740E-03	-1.079E-01	 4.572E-02	-3.902E-01	-8.364E-01	 6.562E-01	-2.554E-01	-2.294E+00	-6.023E+00	 6.308E+00	-4.877E-02
   13.2000	 9.526E+00	-5.500E+00	 0.000E+00	 3.989E+01	-6.423E-03	-8.006E-04	-5.992E-03	-4.526E-03	 8.258E-02	 6.117E-02	-1.883E-01	-1.101E-01	 5.050E+00	 6.343E-01	 1.812E+03	 3.700E-02	 1.010E-01	-2.008E-04	-8.595E-03	-3.380E-01	-1.218E+00	-3.459E-01	-1.259E+00	 9.096E-01	-1.444E-01	-4.227E+00	-4.974E+00	 6.290E+00	-7.795E-02
   13.2500	 9.526E+00	-5.500E+00	 0.000E+00	 5.913E+01	-2.956E-03	-2.605E-03	-7.202E-03	-2.400E-03	 9.977E-02	 3.226E-02	-1.146E-01	-1.076E-01	 5.165E+00	 5.919E-01	 1.812E+03	 3.680E-02	 9.937E-02	-2.904E-03	-3.464E-02	 1.265E-01	 9.661E-01	-3.163E-01	-1.542E+00	 1.039E+00	-8.962E-03	-5.610E+00	-3.268E+00	 6.004E+00	-1.061E-01
   13.3000	 9.526E+00	-5.500E+00	 0.000E+00	 7.837E+01	-3.441E-03	-5.614E-03	-8.225E-03	-4.513E-04	 1.137E-01	 3.343E-03	-1.419E-01	-2.249E-01	 5.234E+00	 6.359E-01	 1.812E+03	 3.630E-02	 9.721E-02	-1.595E-02	-7.041E-02	 2.010E-01	-2.905E-01	-3.146E-01	-1.758E+00	 1.182E+00	-4.589E-02	-6.496E+00	-1.277E+00	 5.936E+00	-9.135E-02
   13.3500	 9.526E+00	-5.500E+00	 0.000E+00	 9.762E+01	-5.935E-03	 5.951E-04	-7.846E-03	 2.994E-04	 1.081E-01	-7.445E-03	-2.018E-01	-1.135E-01	 5.291E+00	 6.387E-01	 1.812E+03	 3.551E-02	 9.407E-02	-2.761E-02	-6.745E-02	-6.739E-01	-7.416E-01	-3.705E-01	-1.739E+00	 1.124E+00	-1.459E-01	-6.449E+00	 8.662E-01	 5.907E+00	-8.659E-02
   13.4000	 9.526E+00	-5.500E+00	 0.000E+00	 1.169E+02	-6.383E-03	 9.048E-03	-7.449E-03	 1.575E-03	 1.022E-01	-2.433E-02	-2.195E-01	 9.041E-02	 5.329E+00	 6.079E-01	 1.812E+03	 3.406E-02	 9.124E-02	-2.197E-02	-3.023E-02	 1.688E-01	 6.406E-01	-3.528E-01	-1.624E+00	 1.076E+00	-1.677E-01	-5.805E+00	 2.961E+00	 5.759E+00	-5.679E-02
   13.4500	 9.526E+00	-5.500E+00	 0.000E+00	 1.361E+02	-3.444E-03	 9.139E-03	-6.440E-03	 1.834E-03	 8.808E-02	-2.775E-02	-1.620E-01	 1.009E-01	 5.331E+00	 6.136E-01	 1.812E+03	 3.298E-02	 8.991E-02	-1.930E-02	-2.059E-02	 2.257E-01	 6.168E-01	-2.654E-01	-1.350E+00	 9.054E-01	-6.204E-02	-4.465E+00	 4.621E+00	 5.685E+00	 4.160E-05
   13.5000	 9.526E+00	-5.500E+00	 0.000E+00	 1.553E+02	-1.094E-03	 2.153E-03	-4.900E-03	 2.698E-03	 6.644E-02	-4.083E-02	-1.155E-01	-7.048E-02	 5.345E+00	 6.524E-01	 1.812E+03	 3.227E-02	 9.014E-02	-9.500E-03	 3.217E-02	 1.422E-01	 5.815E-01	-2.016E-01	-9.608E-01	 6.705E-01	 1.688E-02	-2.669E+00	 5.910E+00	 5.645E+00	 1.453E-02
   13.5500	 9.526E+00	-5.500E+00	 0.000E+00	 1.746E+02	-2.036E-03	-1.885E-03	-3.066E-03	 2.318E-03	 4.088E-02	-3.553E-02	-1.255E-01	-1.502E-01	 5.144E+00	 6.770E-01	 1.812E+03	 3.200E-02	 9.147E-02	 3.639E-03	 2.757E-02	 6.023E-01	 1.291E+00	-1.354E-01	-4.954E-01	 4.641E-01	 2.888E-02	-5.783E-01	 6.432E+00	 5.632E+00	 4.129E-02
   13.6000	 9.526E+00	-5.500E+00	 0.000E+00	 1.938E+02	-5.940E-03	-3.712E-04	-6.827E-04	 1.322E-03	 6.074E-03	-2.069E-02	-2.512E-01	-8.900E-02	 5.224E+00	 6.375E-01	 1.812E+03	 3.265E-02	 9.404E-02	 1.398E-02	 4.013E-02	 8.507E-02	-1.280E+00	-1.229E-01	-1.982E-02	 1.152E-01	-1.921E-01	 1.626E+00	 6.400E+00	 5.812E+00	 4.048E-02
   13.6500	 9.526E+00	-5.500E+00	 0.000E+00	 2.131E+02	-1.341E-03	-2.308E-04	 7.350E-07	 6.140E-05	-2.868E-03	-2.562E-03	-1.365E-01	-7.022E-02	 5.251E+00	 6.311E-01	 1.812E+03	 3.382E-02	 9.617E-02	 2.541E-02	 4.989E-02	-5.794E-01	-8.819E-01	-2.813E-02	 3.060E-01	 1.430E-02	-3.770E-03	 3.528E+00	 5.506E+00	 5.960E+00	 3.488E-02
   13.7000	 9.526E+00	-5.500E+00	 0.000E+00	 2.323E+02	 7.394E-03	-4.671E-03	 1.407E-03	-1.653E-03	-2.167E-02	 2.151E-02	 6.968E-02	-1.572E-01	 5.242E+00	 6.247E-01	 1.812E+03	 3.469E-02	 9.789E-02	 2.203E-02	 4.431E-02	 4.354E-01	 9.445E-01	 1.145E-01	 6.914E-01	-2.573E-01	 3.474E-01	 5.170E+00	 3.977E+00	 6.065E+00	 2.449E-03
   13.7500	 9.526E+00	-5.500E+00	 0.000E+00	 2.516E+02	 9.527E-03	-9.027E-03	 1.783E-03	-2.956E-03	-2.741E-02	 3.975E-02	 9.386E-02	-2.448E-01	 5.124E+00	 5.952E-01	 1.812E+03	 3.579E-02	 9.978E-02	 1.683E-02	 1.613E-02	-1.403E-01	-6.590E-01	 2.525E-01	 8.640E-01	-3.070E-01	 3.966E-01	 6.130E+00	 2.070E+00	 6.290E+00	-1.193E-02
   13.8000	 9.526E+00	-5.500E+00	 0.000E+00	 2.708E+02	 4.332E-03	-8.131E-03	 2.541E-03	-5.205E-03	-3.872E-02	 7.164E-02	-3.212E-02	-2.167E-01	 5.078E+00	 6.020E-01	 1.812E+03	 3.652E-02	 1.004E-01	 1.079E-02	 1.676E-02	-2.491E-01	 1.131E-01	 2.140E-01	 9.568E-01	-3.969E-01	 1.696E-01	 6.476E+00	-1.533E-01	 6.275E+00	-6.940E-02
   13.8500	 9.526E+00	-5.500E+00	 0.000E+00	 2.900E+02	-4.163E-05	-4.153E-03	 2.443E-03	-6.633E-03	-3.706E-02	 9.177E-02	-1.059E-01	-1.376E-01	 5.081E+00	 5.813E-01	 1.812E+03	 3.668E-02	 1.003E-01	-2.204E-03	-3.300E-02	 5.359E-02	-5.950E-01	 8.138E-02	 8.806E-01	-3.420E-01	 8.957E-03	 6.098E+00	-2.307E+00	 6.114E+00	-8.120E-02
   13.9000	 9.526E+00	-5.500E+00	 0.000E+00	 3.093E+02	 2.049E-04	-2.623E-03	 1.445E-03	-7.856E-03	-2.258E-02	 1.087E-01	-8.367E-02	-1.189E-01	 5.174E+00	 5.875E-01	 1.812E+03	 3.664E-02	 9.902E-02	-6.577E-03	-2.980E-02	-5.827E-01	-1.722E+00	 1.596E-02	 6.608E-01	-1.901E-01	 3.532E-02	 5.020E+00	-4.258E+00	 6.117E+00	-1.235E-01
   13.9500	 9.526E+00	-5.500E+00	 0.000E+00	 3.285E+02	 5.504E-04	-4.651E-03	 4.301E-04	-8.144E-03	-7.933E-03	 1.125E-01	-6.235E-02	-1.669E-01	 5.186E+00	 6.536E-01	 1.812E+03	 3.614E-02	 9.630E-02	-8.502E-03	-5.062E-02	-3.024E-01	 1.918E-01	-5.189E-02	 3.604E-01	-5.461E-02	 6.572E-02	 3.445E+00	-5.598E+00	 5.879E+00	-8.210E-02
   14.0000	 9.526E+00	-5.500E+00	 0.000E+00	 3.478E+02	-3.768E-03	-6.657E-03	-1.352E-03	-7.641E-03	 1.721E-02	 1.051E-01	-1.427E-01	-2.204E-01	 5.297E+00	 6.664E-01	 1.812E+03	 3.499E-02	 9.319E-02	-2.815E-02	-5.797E-02	 4.410E-01	 1.538E+00	-2.105E-01	-8.758E-02	 2.458E-01	-8.287E-02	 1.337E+00	-6.358E+00	 5.790E+00	-7.611E-02
   14.0500	 9.526E+00	-5.500E+00	 0.000E+00	 7.004E+00	-9.129E-03	-5.064E-03	-2.522E-03	-7.037E-03	 3.378E-02	 9.641E-02	-2.417E-01	-1.956E-01	 5.325E+00	 6.413E-01	 1.812E+03	 3.391E-02	 9.145E-02	-2.273E-02	-3.399E-02	-1.125E-01	-2.452E-01	-3.818E-01	-4.958E-01	 4.345E-01	-2.748E-01	-7.765E-01	-6.437E+00	 5.836E+00	-3.497E-02
   14.1000	 9.526E+00	-5.500E+00	 0.000E+00	 2.625E+01	-9.774E-03	-1.825E-03	-4.622E-03	-5.633E-03	 6.351E-02	 7.668E-02	-2.457E-01	-1.320E-01	 5.400E+00	 6.190E-01	 1.812E+03	 3.294E-02	 9.035E-02	-1.459E-02	 7.162E-04	 1.619E-01	 1.090E+00	-4.635E-01	-9.699E-01	 7.511E-01	-2.719E-01	-2.878E+00	-5.750E+00	 5.689E+00	-1.158E-02
   14.1500	 9.526E+00	-5.500E+00	 0.000E+00	 4.549E+01	-6.088E-03	-1.243E-03	-6.272E-03	-4.026E-03	 8.664E-02	 5.415E-02	-1.767E-01	-1.190E-01	 5.302E+00	 6.039E-01	 1.812E+03	 3.231E-02	 9.115E-02	-9.863E-03	 1.388E-02	 2.530E-01	-4.807E-01	-3.806E-01	-1.339E+00	 9.401E-01	-1.246E-01	-4.646E+00	-4.551E+00	 5.676E+00	 3.892E-02
   14.2000	 9.526E+00	-5.500E+00	 0.000E+00	 6.473E+01	-3.002E-03	-4.285E-03	-7.508E-03	-1.588E-03	 1.040E-01	 2.014E-02	-1.193E-01	-1.676E-01	 5.313E+00	 5.951E-01	 1.812E+03	 3.238E-02	 9.246E-02	 1.189E-02	 5.375E-02	 4.325E-02	 2.828E-01	-3.231E-01	-1.613E+00	 1.079E+00	-1.801E-02	-5.924E+00	-2.717E+00	 5.644E+00	 1.096E-02
   14.2500	 9.526E+00	-5.500E+00	 0.000E+00	 8.397E+01	-3.812E-03	-4.250E-03	-8.234E-03	-3.529E-04	 1.138E-01	 2.780E-03	-1.483E-01	-1.667E-01	 5.285E+00	 6.015E-01	 1.812E+03	 3.302E-02	 9.432E-02	 2.205E-02	 3.482E-02	 4.918E-01	 9.670E-01	-3.389E-01	-1.768E+00	 1.180E+00	-5.979E-02	-6.558E+00	-7.234E-01	 5.688E+00	 5.547E-02