
FAST Summary File

Predictions were generated on 02-Jul-2014 at 13:25:26 using FAST (v8.08.00c-bjj, 30-June-2014), compiled for 32-bit systems using single precision
  compiled with
    NWTC Subroutine Library (v2.03.03b-bjj, 30-June-2014)
    ElastoDyn (v1.01.06b-bjj, 30-June-2014)
    AeroDyn (v14.02.01c-bjj, 30-June-2014)
    InflowWind (v2.00.01b-bjj, 30-June-2014)
    ServoDyn (v1.01.02a-bjj, 30-June-2014)
    HydroDyn (unknown version, unknown date) [not called]
    SubDyn (unknown version, unknown date) [not called]
    MAP (unknown version, unknown date) [not called]
    FEAMooring (unknown version, unknown date) [not called]
    IceFloe (unknown version, unknown date) [not called]
    IceDyn (unknown version, unknown date) [not called]


Modeling a land-based turbine
Description from the FAST input file: 
  FAST Certification Test #17: SWRT 3-bladed upwind turbine with many DOFs, variable speed control, free yaw, tail-furl, FF turbulence

Interpolation order for input/output time histories: 2 (quadratic)
Number of correction iterations:  0


   Requested Time Steps  
  -------------------------------------------------
  Component          Time Step (s)    Subcycles (-)
  -----------------  ---------------  -------------
  FAST (glue code)    1.000E-03
  ElastoDyn           1.000E-03              1
  AeroDyn             1.000E-03              1
  ServoDyn            1.000E-03              1
  FAST output files   8.000E-03              8^-1


   Requested Channels in FAST Output File(s)  
  --------------------------------------------
  Number  Name        Units       Generated by
  ------  ----------  ----------  ------------
       1  Time        (s)         FAST
       2  WindVxi     (m/s)       InflowWind
       3  WindVyi     (m/s)       InflowWind
       4  WindVzi     (m/s)       InflowWind
       5  TwrClrnc1   (m)         ElastoDyn
       6  TwrClrnc2   (m)         ElastoDyn
       7  TwrClrnc3   (m)         ElastoDyn
       8  LSSTipV     (rpm)       ElastoDyn
       9  TailFurl    (deg)       ElastoDyn
      10  TailFurlV   (deg/s)     ElastoDyn
      11  TailFurlA   (deg/s^2)   ElastoDyn
      12  NacYaw      (deg)       ElastoDyn
      13  RootFzb3    (kN)        ElastoDyn
      14  RootMEdg3   (kN·m)      ElastoDyn
      15  RootMFlp3   (kN·m)      ElastoDyn
      16  LSShftFxs   (kN)        ElastoDyn
      17  LSShftMxs   (kN·m)      ElastoDyn
      18  TFrlBrM     (kN·m)      ElastoDyn
      19  YawBrFzn    (kN)        ElastoDyn
