
FAST Summary File

Predictions were generated on 21-May-2014 at 14:24:03 using FAST (v8.07.00b-bjj, 15-May-2014), compiled for 32-bit systems using single precision
  compiled with
    NWTC Subroutine Library (v2.03.00d-bjj, 22-Jan-2014)
    ElastoDyn (v1.01.06a-bjj, 2-May-2014)
    ServoDyn (v1.01.02a-bjj, 31-Jan-2014)
    AeroDyn (v14.02.01b-bjj, 29-Jan-2014)
    InflowWind (v2.00.01a-bjj, 22-Jan-2014)
    HydroDyn (v2.00.05c-gjh, 15-May-2014)
    SubDyn (v1.00.00c-bjj, 20-May-2014)
    MAP (unknown version, unknown date) [not called]
    FEAMooring (unknown version, unknown date) [not called]
    IceFloe (unknown version, unknown date) [not called]


Modeling a fixed-bottom offshore turbine
Description from the FAST input file: 
  FAST Certification Test #19: NREL 5.0 MW Baseline Wind Turbine with OC3 Monopile RF Configuration, for use in offshore analysis

Interpolation order for input/output time histories: 2 (quadratic)
Number of correction iterations:  0
Number of rows in Jacobian matrix used for coupling ElastoDyn, SubDyn, and HydroDyn:    498


   Requested Time Steps  
  -------------------------------------------------
  Component          Time Step (s)    Subcycles (-)
  -----------------  ---------------  -------------
  FAST (glue code)    3.000E-03
  ElastoDyn           3.000E-03              1
  AeroDyn             3.000E-03              1
  ServoDyn            3.000E-03              1
  HydroDyn            3.000E-03              1
  SubDyn              3.000E-03              1
  FAST output files   1.800E-02              6^-1


   Requested Channels in FAST Output File(s)  
  --------------------------------------------
  Number  Name        Units       Generated by
  ------  ----------  ----------  ------------
       1  Time        (s)         FAST
       2  WindVxi     (m/s)       InflowWind
       3  WindVyi     (m/s)       InflowWind
       4  WindVzi     (m/s)       InflowWind
       5  OoPDefl1    (m)         ElastoDyn
       6  IPDefl1     (m)         ElastoDyn
       7  TwstDefl1   (deg)       ElastoDyn
       8  BldPitch1   (deg)       ElastoDyn
       9  Azimuth     (deg)       ElastoDyn
      10  RotSpeed    (rpm)       ElastoDyn
      11  GenSpeed    (rpm)       ElastoDyn
      12  TwHt1TPxi   (m)         ElastoDyn
      13  TwHt1TPyi   (m)         ElastoDyn
      14  TTDspTwst   (deg)       ElastoDyn
      15  Spn2MLxb1   (kN·m)      ElastoDyn
      16  Spn2MLyb1   (kN·m)      ElastoDyn
      17  RootFxc1    (kN)        ElastoDyn
      18  RootFyc1    (kN)        ElastoDyn
      19  RootFzc1    (kN)        ElastoDyn
      20  RootMxc1    (kN·m)      ElastoDyn
      21  RootMyc1    (kN·m)      ElastoDyn
      22  RootMzc1    (kN·m)      ElastoDyn
      23  RotTorq     (kN·m)      ElastoDyn
      24  LSSGagMya   (kN·m)      ElastoDyn
      25  LSSGagMza   (kN·m)      ElastoDyn
      26  YawBrFxp    (kN)        ElastoDyn
      27  YawBrFyp    (kN)        ElastoDyn
      28  YawBrFzp    (kN)        ElastoDyn
      29  YawBrMxp    (kN·m)      ElastoDyn
      30  YawBrMyp    (kN·m)      ElastoDyn
      31  YawBrMzp    (kN·m)      ElastoDyn
      32  PtfmTAxi    (m/s^2)     ElastoDyn
      33  PtfmTAyi    (m/s^2)     ElastoDyn
      34  PtfmTAzi    (m/s^2)     ElastoDyn
      35  PtfmRAxi    (deg/s^2)   ElastoDyn
      36  PtfmRAyi    (deg/s^2)   ElastoDyn
      37  PtfmRAzi    (deg/s^2)   ElastoDyn
      38  PtfmTDxi    (m)         ElastoDyn
      39  PtfmTDyi    (m)         ElastoDyn
      40  PtfmTDzi    (m)         ElastoDyn
      41  PtfmTVxi    (m/s)       ElastoDyn
      42  PtfmTVyi    (m/s)       ElastoDyn
      43  PtfmTVzi    (m/s)       ElastoDyn
      44  PtfmRDxi    (deg)       ElastoDyn
      45  PtfmRDyi    (deg)       ElastoDyn
      46  PtfmRDzi    (deg)       ElastoDyn
      47  GenPwr      (kW)        ServoDyn
      48  GenTq       (kN·m)      ServoDyn
      49  Wave1Elev   (m)         HydroDyn
      50  M2N1MKxe    (N*m)       SubDyn
      51  M2N1MKye    (N*m)       SubDyn
      52  M1N1MKxe    (N*m)       SubDyn
      53  M1N1MKye    (N*m)       SubDyn
      54  -ReactFXss  (N)         SubDyn
      55  -ReactFYss  (N)         SubDyn
      56  -ReactFZss  (N)         SubDyn
      57  -ReactMXss  (Nm)        SubDyn
      58  -ReactMYss  (Nm)        SubDyn
      59  -ReactMZss  (Nm)        SubDyn
