
FAST Summary File

Predictions were generated on 03-Oct-2013 at 23:57:00 using FAST (v8.03.02b-bjj, 3-Oct-2013), compiled for 32-bit systems using single precision
  compiled with
    NWTC Subroutine Library (v2.03.00b-bjj, 1-Oct-2013)
    ElastoDyn (v1.01.02b-bjj, 03-Oct-2013)
    ServoDyn (v1.01.01b-bjj, 03-Oct-2013)
    AeroDyn (v14.02.00c-mlb, 02-Oct-2013)
    InflowWind (v2.00.00b-adp, 17-Sept-2013)
    HydroDyn (unknown version, unknown date) [not called]
    SubDyn (unknown version, unknown date) [not called]
    MAP (unknown version, unknown date) [not called]


Modeling an onshore turbine
Description from the FAST input file: 
  FAST Certification Test #11: WindPACT 1.5 MW Baseline with many DOFs undergoing a pitch failure.

Interpolation order for input/output time histories: 0 (nearest neighbor)
Number of correction iterations:  0


   Requested Channels in FAST Output File(s) 
  -------------------------------------------
  Number  Name        Units       Generated by
  ------  ----------  ----------  ------------
       1  Time        (s)         FAST
       2  WindVxi     (m/s)       InflowWind
       3  WindVyi     (m/s)       InflowWind
       4  WindVzi     (m/s)       InflowWind
       5  RotSpeed    (rpm)       ElastoDyn
       6  BldPitch1   (deg)       ElastoDyn
       7  OoPDefl1    (m)         ElastoDyn
       8  OoPDefl3    (m)         ElastoDyn
       9  TipALxb1    (m/s^2)     ElastoDyn
      10  RootMxb1    (kN·m)      ElastoDyn
      11  RootMyb1    (kN·m)      ElastoDyn
      12  RootMzb1    (kN·m)      ElastoDyn
      13  RotThrust   (kN)        ElastoDyn
      14  LSShftFya   (kN)        ElastoDyn
      15  LSShftFza   (kN)        ElastoDyn
      16  LSSTipMya   (kN·m)      ElastoDyn
      17  LSSTipMza   (kN·m)      ElastoDyn
      18  RotTorq     (kN·m)      ElastoDyn
      19  RotPwr      (kW)        ElastoDyn
      20  TTDspFA     (m)         ElastoDyn
      21  TTDspSS     (m)         ElastoDyn
      22  TwHt1MLxt   (kN·m)      ElastoDyn
      23  TwHt1MLyt   (kN·m)      ElastoDyn
      24  TwHt1MLzt   (kN·m)      ElastoDyn
      25  TwHt2FLxt   (kN)        ElastoDyn
      26  TwHt2FLyt   (kN)        ElastoDyn
      27  TwHt2FLzt   (kN)        ElastoDyn
      28  TwHt1RPxi   (deg)       ElastoDyn
      29  TwHt1TPxi   (m)         ElastoDyn
      30  TwHt1RDxt   (deg)       ElastoDyn
      31  TwHt1TDxt   (m)         ElastoDyn
      32  GenPwr      (kW)        ServoDyn
