
FAST Summary File

Predictions were generated on 06-Oct-2014 at 15:02:53 using FAST (v8.09.00a-bjj, 30-Sep-2014), compiled for 32-bit systems using single precision
  compiled with
    NWTC Subroutine Library (v2.04.00a-bjj, 30-Sep-2014)
    ElastoDyn (v1.01.07a-bjj, 30-Sep-2014)
    AeroDyn (v14.03.00a-bjj, 30-Sep-2014)
    InflowWind (v2.00.01c-bjj, 30-Sep-2014)
    ServoDyn (v1.01.02a-bjj, 30-June-2014)
    HydroDyn (unknown version, unknown date) [not called]
    SubDyn (unknown version, unknown date) [not called]
    MAP (unknown version, unknown date) [not called]
    FEAMooring (unknown version, unknown date) [not called]
    IceFloe (unknown version, unknown date) [not called]
    IceDyn (unknown version, unknown date) [not called]


Modeling a land-based turbine
Description from the FAST input file: 
  FAST Certification Test #12: WindPACT 1.5 MW Baseline with many DOFs with VS and VP and ECD wind.

Interpolation order for input/output time histories: 1 (linear)
Number of correction iterations:  0


   Requested Time Steps  
  -------------------------------------------------
  Component          Time Step (s)    Subcycles (-)
  -----------------  ---------------  -------------
  FAST (glue code)    5.000E-03
  ElastoDyn           5.000E-03              1
  AeroDyn             5.000E-03              1
  ServoDyn            5.000E-03              1
  FAST output files   5.000E-02             10^-1


   Requested Channels in FAST Output File(s)  
  --------------------------------------------
  Number  Name        Units       Generated by
  ------  ----------  ----------  ------------
       1  Time        (s)         FAST
       2  WindVxi     (m/s)       InflowWind
       3  WindVyi     (m/s)       InflowWind
       4  WindVzi     (m/s)       InflowWind
       5  OoPDefl3    (m)         ElastoDyn
       6  IPDefl3     (m)         ElastoDyn
       7  TipALxb3    (m/s^2)     ElastoDyn
       8  TipALyb3    (m/s^2)     ElastoDyn
       9  Spn4ALxb1   (m/s^2)     ElastoDyn
      10  Spn4ALyb1   (m/s^2)     ElastoDyn
      11  BldPitch3   (deg)       ElastoDyn
      12  RotAccel    (deg/s^2)   ElastoDyn
      13  LSSGagA     (deg/s^2)   ElastoDyn
      14  HSShftA     (deg/s^2)   ElastoDyn
      15  RootFxb3    (kN)        ElastoDyn
      16  RootFyb3    (kN)        ElastoDyn
      17  RootMEdg3   (kN·m)      ElastoDyn
      18  RootMFlp3   (kN·m)      ElastoDyn
      19  LSShftFya   (kN)        ElastoDyn
      20  LSShftFza   (kN)        ElastoDyn
      21  YawBrFxp    (kN)        ElastoDyn
      22  YawBrFyp    (kN)        ElastoDyn
      23  TwrBsFxt    (kN)        ElastoDyn
      24  TwrBsFyt    (kN)        ElastoDyn
