
FAST Summary File

Predictions were generated on 21-May-2014 at 21:19:17 using FAST (v8.07.00b-bjj, 15-May-2014), compiled for 32-bit systems using single precision
  compiled with
    NWTC Subroutine Library (v2.03.00d-bjj, 22-Jan-2014)
    ElastoDyn (v1.01.06a-bjj, 2-May-2014)
    ServoDyn (v1.01.02a-bjj, 31-Jan-2014)
    AeroDyn (v14.02.01b-bjj, 29-Jan-2014)
    InflowWind (v2.00.01a-bjj, 22-Jan-2014)
    HydroDyn (unknown version, unknown date) [not called]
    SubDyn (unknown version, unknown date) [not called]
    MAP (unknown version, unknown date) [not called]
    FEAMooring (unknown version, unknown date) [not called]
    IceFloe (unknown version, unknown date) [not called]


Modeling a land-based turbine
Description from the FAST input file: 
  FAST Certification Test #16: SWRT 3-bladed upwind turbine with many DOFs, variable speed control, free yaw, tail-furl, EDC01 event

Interpolation order for input/output time histories: 2 (quadratic)
Number of correction iterations:  0


   Requested Time Steps  
  -------------------------------------------------
  Component          Time Step (s)    Subcycles (-)
  -----------------  ---------------  -------------
  FAST (glue code)    1.000E-03
  ElastoDyn           1.000E-03              1
  AeroDyn             1.000E-03              1
  ServoDyn            1.000E-03              1
  FAST output files   8.000E-03              8^-1


   Requested Channels in FAST Output File(s)  
  --------------------------------------------
  Number  Name        Units       Generated by
  ------  ----------  ----------  ------------
       1  Time        (s)         FAST
       2  WindVxi     (m/s)       InflowWind
       3  WindVyi     (m/s)       InflowWind
       4  WindVzi     (m/s)       InflowWind
       5  RotSpeed    (rpm)       ElastoDyn
       6  TailFurlP   (deg)       ElastoDyn
       7  TailFurlV   (deg/s)     ElastoDyn
       8  TailFurlA   (deg/s^2)   ElastoDyn
       9  NacYawP     (deg)       ElastoDyn
      10  RootFxc3    (kN)        ElastoDyn
      11  RootFyc3    (kN)        ElastoDyn
      12  RootMxc1    (kN·m)      ElastoDyn
      13  RootMyc1    (kN·m)      ElastoDyn
      14  RotThrust   (kN)        ElastoDyn
      15  RotTorq     (kN·m)      ElastoDyn
      16  RotPwr      (kW)        ElastoDyn
      17  TFrlBrM     (kN·m)      ElastoDyn
