
Predictions were generated on 21-May-2014 at 21:18:06 using FAST (v8.07.00b-bjj, 15-May-2014), compiled for 32-bit systems using single precision
 linked with  NWTC Subroutine Library (v2.03.00d-bjj, 22-Jan-2014); ElastoDyn (v1.01.06a-bjj, 2-May-2014); InflowWind (v2.00.01a-bjj, 22-Jan-2014); AeroDyn (v14.02.01b-bjj, 29-Jan-2014); ServoDyn (v1.01.02a-bjj, 31-Jan-2014)

Description from the FAST input file: FAST Certification Test #08: AOC 15/50 with many DOFs with fixed yaw error and steady wind. Many parameters are pure fiction.

Time      	WindVxi   	WindVyi   	WindVzi   	LSSGagPxa 	TipDxb1   	TipDxb2   	TipDyb1   	TipDyb2   	RollDefl1 	RollDefl2 	PtchDefl1 	PtchDefl2 	Spn1ALxb1 	Spn1ALyb1 	HSShftV   	TTDspRoll 	TTDspPtch 	YawBrRVxp 	YawBrRVyp 	YawBrRAxp 	YawBrRAyp 	RootFxb1  	RootFyb1  	Spn2MLxb1 	Spn2MLyb1 	LSShftFya 	LSShftFza 	YawBrFxn  	YawBrFyn  
(s)       	(m/s)     	(m/s)     	(m/s)     	(deg)     	(m)       	(m)       	(m)       	(m)       	(deg)     	(deg)     	(deg)     	(deg)     	(m/s^2)   	(m/s^2)   	(rpm)     	(deg)     	(deg)     	(deg/s)   	(deg/s)   	(deg/s^2) 	(deg/s^2) 	(kN)      	(kN)      	(kN·m)    	(kN·m)    	(kN)      	(kN)      	(kN)      	(kN)      
   10.0000	 9.526E+00	-5.500E+00	 0.000E+00	 2.484E+02	 1.057E-02	-7.858E-03	 1.722E-03	-2.724E-03	-2.689E-02	 3.651E-02	 1.010E-01	-2.209E-01	 4.956E+00	 5.421E-01	 1.812E+03	 3.869E-02	 1.052E-01	-4.596E-03	-5.455E-02	-4.996E-01	-1.446E+00	 3.407E-01	 8.469E-01	-3.123E-01	 4.314E-01	 6.041E+00	 2.391E+00	 6.640E+00	-9.292E-02
   10.0500	 9.526E+00	-5.500E+00	 0.000E+00	 2.676E+02	 6.140E-03	-8.619E-03	 2.367E-03	-4.885E-03	-3.605E-02	 6.716E-02	 1.169E-02	-2.256E-01	 5.041E+00	 6.028E-01	 1.812E+03	 3.803E-02	 1.015E-01	-2.136E-02	-7.997E-02	-3.505E-01	 1.855E-01	 2.411E-01	 9.440E-01	-3.826E-01	 2.414E-01	 6.458E+00	 1.887E-01	 6.348E+00	-1.305E-01
   10.1000	 9.526E+00	-5.500E+00	 0.000E+00	 2.869E+02	 5.192E-04	-5.518E-03	 2.532E-03	-6.412E-03	-3.811E-02	 8.862E-02	-8.731E-02	-1.660E-01	 5.186E+00	 5.854E-01	 1.812E+03	 3.652E-02	 9.718E-02	-3.780E-02	-1.093E-01	-1.648E-01	-1.125E+00	 6.204E-02	 9.066E-01	-3.581E-01	 3.596E-02	 6.220E+00	-1.943E+00	 6.040E+00	-1.015E-01
   10.1500	 9.526E+00	-5.500E+00	 0.000E+00	 3.061E+02	-5.674E-04	-3.404E-03	 1.622E-03	-7.610E-03	-2.530E-02	 1.054E-01	-1.074E-01	-1.279E-01	 5.327E+00	 6.382E-01	 1.812E+03	 3.478E-02	 9.214E-02	-3.249E-02	-7.730E-02	-2.854E-01	-1.494E-01	 1.222E-02	 6.964E-01	-2.122E-01	 9.539E-04	 5.209E+00	-3.951E+00	 5.657E+00	-1.267E-01
   10.2000	 9.526E+00	-5.500E+00	 0.000E+00	 3.254E+02	 1.353E-04	-4.887E-03	 6.931E-04	-8.176E-03	-1.174E-02	 1.130E-01	-7.465E-02	-1.691E-01	 5.427E+00	 6.797E-01	 1.812E+03	 3.308E-02	 8.765E-02	-2.513E-02	-7.226E-02	 4.402E-01	 1.917E+00	-5.632E-02	 4.209E-01	-9.234E-02	 4.630E-02	 3.742E+00	-5.403E+00	 5.307E+00	-4.173E-02
   10.2500	 9.526E+00	-5.500E+00	 0.000E+00	 3.446E+02	-3.677E-03	-6.895E-03	-1.038E-03	-7.658E-03	 1.288E-02	 1.053E-01	-1.373E-01	-2.230E-01	 5.501E+00	 6.695E-01	 1.812E+03	 3.164E-02	 8.495E-02	-3.270E-02	-4.465E-02	 4.513E-01	 1.488E+00	-2.307E-01	-8.931E-03	 2.018E-01	-7.831E-02	 1.704E+00	-6.248E+00	 5.328E+00	-1.227E-02
   10.3000	 9.526E+00	-5.500E+00	 0.000E+00	 3.853E+00	-9.330E-03	-5.637E-03	-2.224E-03	-7.175E-03	 2.972E-02	 9.836E-02	-2.404E-01	-2.059E-01	 5.491E+00	 6.304E-01	 1.812E+03	 3.085E-02	 8.520E-02	-5.294E-03	 3.437E-02	 8.092E-02	 4.327E-02	-4.151E-01	-4.168E-01	 3.965E-01	-2.801E-01	-4.049E-01	-6.477E+00	 5.473E+00	 3.383E-02
   10.3500	 9.526E+00	-5.500E+00	 0.000E+00	 2.310E+01	-1.053E-02	-2.160E-03	-4.200E-03	-5.902E-03	 5.752E-02	 8.051E-02	-2.627E-01	-1.373E-01	 5.447E+00	 5.966E-01	 1.812E+03	 3.092E-02	 8.754E-02	 1.157E-02	 7.436E-02	 3.815E-01	 1.473E+00	-4.763E-01	-8.849E-01	 6.956E-01	-3.025E-01	-2.518E+00	-5.905E+00	 5.512E+00	 6.029E-02
   10.4000	 9.526E+00	-5.500E+00	 0.000E+00	 4.234E+01	-6.469E-03	-9.176E-04	-6.069E-03	-4.321E-03	 8.372E-02	 5.832E-02	-1.870E-01	-1.117E-01	 5.232E+00	 5.919E-01	 1.812E+03	 3.184E-02	 9.254E-02	 2.264E-02	 1.035E-01	 1.482E-01	-8.647E-01	-3.711E-01	-1.286E+00	 9.178E-01	-1.404E-01	-4.388E+00	-4.814E+00	 5.774E+00	 8.146E-02
   10.4500	 9.526E+00	-5.500E+00	 0.000E+00	 6.158E+01	-2.233E-03	-3.453E-03	-7.359E-03	-2.035E-03	 1.020E-01	 2.691E-02	-1.007E-01	-1.323E-01	 5.168E+00	 5.552E-01	 1.812E+03	 3.340E-02	 9.741E-02	 4.229E-02	 1.147E-01	 2.109E-01	 1.019E+00	-3.013E-01	-1.569E+00	 1.056E+00	 2.000E-02	-5.761E+00	-3.026E+00	 5.850E+00	 1.769E-02
   10.5000	 9.526E+00	-5.500E+00	 0.000E+00	 8.082E+01	-2.683E-03	-5.362E-03	-8.287E-03	-3.922E-04	 1.146E-01	 2.974E-03	-1.271E-01	-2.022E-01	 5.090E+00	 6.040E-01	 1.812E+03	 3.537E-02	 1.020E-01	 3.991E-02	 6.047E-02	 3.767E-01	-1.325E-01	-2.888E-01	-1.765E+00	 1.183E+00	-1.895E-02	-6.540E+00	-1.057E+00	 6.155E+00	 3.387E-02
   10.5500	 9.526E+00	-5.500E+00	 0.000E+00	 1.001E+02	-5.323E-03	 1.710E-03	-7.831E-03	 5.071E-04	 1.077E-01	-1.031E-02	-1.938E-01	-8.952E-02	 5.008E+00	 6.202E-01	 1.812E+03	 3.716E-02	 1.045E-01	 1.955E-02	 1.686E-02	-6.275E-01	-1.420E+00	-3.267E-01	-1.730E+00	 1.118E+00	-1.248E-01	-6.415E+00	 1.141E+00	 6.507E+00	-3.117E-02
   10.6000	 9.526E+00	-5.500E+00	 0.000E+00	 1.193E+02	-5.537E-03	 9.796E-03	-7.419E-03	 1.646E-03	 1.017E-01	-2.568E-02	-2.061E-01	 9.126E-02	 5.022E+00	 6.149E-01	 1.812E+03	 3.802E-02	 1.049E-01	 1.497E-02	 1.510E-03	-4.666E-01	-1.308E+00	-2.991E-01	-1.606E+00	 1.064E+00	-1.395E-01	-5.701E+00	 3.221E+00	 6.601E+00	-7.609E-02
   10.6500	 9.526E+00	-5.500E+00	 0.000E+00	 1.385E+02	-2.626E-03	 9.347E-03	-6.281E-03	 1.918E-03	 8.580E-02	-2.900E-02	-1.475E-01	 1.023E-01	 5.040E+00	 5.764E-01	 1.812E+03	 3.818E-02	 1.033E-01	-4.430E-03	-5.315E-02	-2.327E-01	-2.969E-01	-2.187E-01	-1.304E+00	 8.766E-01	-3.315E-02	-4.250E+00	 4.852E+00	 6.463E+00	-9.348E-02
   10.7000	 9.526E+00	-5.500E+00	 0.000E+00	 1.578E+02	-8.340E-04	 2.533E-03	-4.700E-03	 2.679E-03	 6.360E-02	-4.044E-02	-1.113E-01	-5.843E-02	 5.123E+00	 5.932E-01	 1.812E+03	 3.752E-02	 1.004E-01	-2.296E-02	-6.497E-02	-3.786E-01	-8.058E-01	-1.775E-01	-9.030E-01	 6.438E-01	 2.664E-02	-2.399E+00	 6.061E+00	 6.261E+00	-1.173E-01
   10.7500	 9.526E+00	-5.500E+00	 0.000E+00	 1.770E+02	-2.213E-03	-9.006E-04	-2.717E-03	 2.118E-03	 3.645E-02	-3.276E-02	-1.106E-01	-1.330E-01	 5.101E+00	 6.357E-01	 1.812E+03	 3.611E-02	 9.603E-02	-2.784E-02	-9.201E-02	 1.680E-01	 9.274E-01	-2.024E-01	-4.435E-01	 3.860E-01	-1.093E-01	-2.641E-01	 6.465E+00	 5.888E+00	-1.122E-01
   10.8000	 9.526E+00	-5.500E+00	 0.000E+00	 1.963E+02	-5.830E-03	 4.421E-04	-5.463E-04	 1.141E-03	 4.381E-03	-1.813E-02	-2.406E-01	-7.186E-02	 5.287E+00	 5.995E-01	 1.812E+03	 3.463E-02	 9.197E-02	-3.409E-02	-9.772E-02	 1.820E-01	-4.649E-01	-1.417E-01	 2.842E-02	 1.044E-01	-1.741E-01	 1.918E+00	 6.322E+00	 5.671E+00	-8.185E-02
   10.8500	 9.526E+00	-5.500E+00	 0.000E+00	 2.155E+02	-3.343E-04	-8.981E-04	 1.468E-04	-1.977E-04	-5.137E-03	 1.168E-03	-1.253E-01	-7.975E-02	 5.327E+00	 6.301E-01	 1.812E+03	 3.326E-02	 8.813E-02	-3.087E-02	-6.027E-02	-5.795E-01	-3.222E-01	 1.562E-02	 3.590E-01	-1.073E-02	 4.482E-02	 3.772E+00	 5.308E+00	 5.536E+00	-5.129E-02
   10.9000	 9.526E+00	-5.500E+00	 0.000E+00	 2.348E+02	 8.214E-03	-6.656E-03	 1.496E-03	-1.737E-03	-2.301E-02	 2.280E-02	 8.236E-02	-1.917E-01	 5.446E+00	 6.654E-01	 1.812E+03	 3.172E-02	 8.585E-02	-1.794E-02	-4.380E-03	 5.381E-01	 1.733E+00	 1.335E-01	 7.239E-01	-2.740E-01	 3.800E-01	 5.319E+00	 3.745E+00	 5.398E+00	-1.104E-02
   10.9500	 9.526E+00	-5.500E+00	 0.000E+00	 2.540E+02	 8.962E-03	-1.092E-02	 1.804E-03	-3.106E-03	-2.745E-02	 4.190E-02	 9.246E-02	-2.795E-01	 5.437E+00	 6.803E-01	 1.812E+03	 3.114E-02	 8.655E-02	-5.636E-03	 2.568E-02	 3.880E-01	 8.228E-01	 1.797E-01	 8.712E-01	-3.027E-01	 3.806E-01	 6.172E+00	 1.805E+00	 5.492E+00	 5.035E-02
   11.0000	 9.526E+00	-5.500E+00	 0.000E+00	 2.732E+02	 2.438E-03	-8.894E-03	 2.673E-03	-5.333E-03	-4.053E-02	 7.344E-02	-6.700E-02	-2.315E-01	 5.373E+00	 6.476E-01	 1.812E+03	 3.133E-02	 8.932E-02	 1.137E-02	 8.746E-02	 2.415E-01	 9.094E-01	 1.368E-01	 9.584E-01	-4.032E-01	 9.853E-02	 6.459E+00	-3.954E-01	 5.598E+00	 5.107E-02
   11.0500	 9.526E+00	-5.500E+00	 0.000E+00	 2.925E+02	-1.760E-03	-3.863E-03	 2.425E-03	-6.733E-03	-3.694E-02	 9.323E-02	-1.443E-01	-1.297E-01	 5.339E+00	 6.175E-01	 1.812E+03	 3.216E-02	 9.355E-02	 2.439E-02	 7.603E-02	 5.133E-01	 4.929E-01	 3.272E-02	 8.601E-01	-3.243E-01	-5.377E-02	 5.981E+00	-2.495E+00	 5.756E+00	 6.906E-02
   11.1000	 9.526E+00	-5.500E+00	 0.000E+00	 3.117E+02	-3.839E-04	-2.178E-03	 1.413E-03	-7.985E-03	-2.203E-02	 1.104E-01	-9.121E-02	-1.136E-01	 5.228E+00	 5.483E-01	 1.812E+03	 3.383E-02	 9.829E-02	 3.328E-02	 8.500E-02	-1.780E-01	-1.896E+00	-2.030E-02	 6.401E-01	-1.811E-01	 1.986E-02	 4.886E+00	-4.431E+00	 6.082E+00	 3.313E-02
   11.1500	 9.526E+00	-5.500E+00	 0.000E+00	 3.310E+02	 4.337E-04	-4.222E-03	 2.392E-04	-8.093E-03	-5.153E-03	 1.117E-01	-6.081E-02	-1.615E-01	 5.078E+00	 5.955E-01	 1.812E+03	 3.570E-02	 1.016E-01	 3.866E-02	 6.194E-02	-5.860E-01	-9.131E-01	-6.098E-02	 3.156E-01	-2.307E-02	 6.678E-02	 3.221E+00	-5.721E+00	 6.235E+00	 1.019E-02
   11.2000	 9.526E+00	-5.500E+00	 0.000E+00	 3.502E+02	-3.485E-03	-5.983E-03	-1.560E-03	-7.647E-03	 2.013E-02	 1.051E-01	-1.368E-01	-2.099E-01	 5.049E+00	 6.129E-01	 1.812E+03	 3.691E-02	 1.032E-01	 2.056E-02	 2.303E-02	 2.501E-01	 4.854E-01	-1.877E-01	-1.375E-01	 2.717E-01	-7.163E-02	 1.082E+00	-6.434E+00	 6.372E+00	-3.790E-02
   11.2500	 9.526E+00	-5.500E+00	 0.000E+00	 9.452E+00	-8.165E-03	-4.102E-03	-2.809E-03	-6.936E-03	 3.770E-02	 9.496E-02	-2.273E-01	-1.780E-01	 5.004E+00	 6.172E-01	 1.812E+03	 3.776E-02	 1.037E-01	 7.078E-03	-2.052E-02	-3.323E-01	-1.167E+00	-3.199E-01	-5.593E-01	 4.651E-01	-2.399E-01	-1.060E+00	-6.404E+00	 6.541E+00	-6.217E-02
   11.3000	 9.526E+00	-5.500E+00	 0.000E+00	 2.869E+01	-8.247E-03	-1.201E-03	-5.003E-03	-5.448E-03	 6.882E-02	 7.406E-02	-2.185E-01	-1.211E-01	 5.105E+00	 6.398E-01	 1.812E+03	 3.782E-02	 1.021E-01	-5.830E-03	-3.763E-02	-3.935E-01	-1.182E-02	-3.972E-01	-1.037E+00	 7.931E-01	-2.171E-01	-3.171E+00	-5.642E+00	 6.383E+00	-1.134E-01
   11.3500	 9.526E+00	-5.500E+00	 0.000E+00	 4.794E+01	-4.924E-03	-1.319E-03	-6.498E-03	-3.778E-03	 8.984E-02	 5.060E-02	-1.537E-01	-1.225E-01	 5.134E+00	 6.341E-01	 1.812E+03	 3.703E-02	 9.943E-02	-2.348E-02	-8.017E-02	-1.019E-01	-9.808E-01	-3.434E-01	-1.385E+00	 9.604E-01	-8.306E-02	-4.866E+00	-4.327E+00	 6.175E+00	-9.498E-02
   11.4000	 9.526E+00	-5.500E+00	 0.000E+00	 6.718E+01	-3.131E-03	-5.192E-03	-7.696E-03	-1.226E-03	 1.065E-01	 1.444E-02	-1.250E-01	-2.089E-01	 5.229E+00	 6.471E-01	 1.812E+03	 3.594E-02	 9.572E-02	-2.412E-02	-6.385E-02	-4.850E-01	-8.995E-01	-3.174E-01	-1.653E+00	 1.108E+00	-2.321E-02	-6.088E+00	-2.431E+00	 5.892E+00	-1.360E-01
   11.4500	 9.526E+00	-5.500E+00	 0.000E+00	 8.642E+01	-4.792E-03	-3.649E-03	-8.172E-03	-2.755E-04	 1.129E-01	 1.750E-03	-1.682E-01	-1.529E-01	 5.369E+00	 6.174E-01	 1.812E+03	 3.457E-02	 9.157E-02	-2.187E-02	-7.365E-02	 8.581E-02	 1.132E+00	-3.710E-01	-1.770E+00	 1.176E+00	-9.761E-02	-6.569E+00	-4.183E-01	 5.554E+00	-6.863E-02
   11.5000	 9.526E+00	-5.500E+00	 0.000E+00	 1.057E+02	-6.785E-03	 4.779E-03	-7.656E-03	 9.132E-04	 1.053E-01	-1.525E-02	-2.214E-01	-9.004E-04	 5.436E+00	 5.932E-01	 1.812E+03	 3.305E-02	 8.816E-02	-3.512E-02	-5.987E-02	 4.484E-01	 1.494E+00	-3.939E-01	-1.699E+00	 1.105E+00	-1.790E-01	-6.233E+00	 1.771E+00	 5.512E+00	-3.962E-02
   11.5500	 9.526E+00	-5.500E+00	 0.000E+00	 1.249E+02	-5.476E-03	 9.748E-03	-7.132E-03	 1.707E-03	 9.775E-02	-2.679E-02	-2.032E-01	 8.114E-02	 5.431E+00	 6.387E-01	 1.812E+03	 3.191E-02	 8.710E-02	-1.638E-02	-1.420E-03	 8.023E-02	 1.375E-01	-3.274E-01	-1.534E+00	 1.022E+00	-1.349E-01	-5.331E+00	 3.690E+00	 5.585E+00	 7.645E-03
   11.6000	 9.526E+00	-5.500E+00	 0.000E+00	 1.441E+02	-2.165E-03	 6.129E-03	-5.804E-03	 2.225E-03	 7.911E-02	-3.366E-02	-1.379E-01	 2.686E-02	 5.357E+00	 6.329E-01	 1.812E+03	 3.140E-02	 8.775E-02	-1.914E-03	 3.853E-02	 2.872E-01	 1.351E+00	-2.144E-01	-1.195E+00	 8.025E-01	-2.008E-02	-3.754E+00	 5.218E+00	 5.528E+00	 3.499E-02
   11.6500	 9.526E+00	-5.500E+00	 0.000E+00	 1.634E+02	-1.120E-03	-3.083E-04	-4.221E-03	 2.728E-03	 5.690E-02	-4.079E-02	-1.160E-01	-1.008E-01	 5.317E+00	 6.703E-01	 1.812E+03	 3.162E-02	 9.096E-02	 8.821E-03	 6.854E-02	 1.885E-01	-7.557E-01	-2.031E-01	-7.845E-01	 5.798E-01	 9.121E-03	-1.859E+00	 6.242E+00	 5.676E+00	 7.204E-02
   11.7000	 9.526E+00	-5.500E+00	 0.000E+00	 1.826E+02	-3.580E-03	-1.819E-03	-1.890E-03	 1.888E-03	 2.487E-02	-2.924E-02	-1.351E-01	-1.394E-01	 5.090E+00	 6.777E-01	 1.812E+03	 3.258E-02	 9.449E-02	 3.161E-02	 9.530E-02	 1.929E-01	 8.838E-01	-2.932E-01	-2.686E-01	 2.873E-01	-7.350E-02	 3.753E-01	 6.491E+00	 5.722E+00	 2.203E-02
   11.7500	 9.526E+00	-5.500E+00	 0.000E+00	 2.019E+02	-4.762E-03	 5.389E-04	-4.018E-04	 9.371E-04	 3.225E-03	-1.524E-02	-1.858E-01	-6.975E-02	 5.284E+00	 6.439E-01	 1.812E+03	 3.411E-02	 9.828E-02	 3.540E-02	 5.665E-02	 5.200E-01	 5.458E-01	-2.211E-01	 1.167E-01	 9.447E-02	-1.144E-01	 2.452E+00	 6.141E+00	 5.927E+00	 5.048E-02
   11.8000	 9.526E+00	-5.500E+00	 0.000E+00	 2.211E+02	 2.163E-03	-1.203E-03	 5.920E-04	-7.884E-04	-1.147E-02	 9.351E-03	-7.965E-02	-9.037E-02	 5.062E+00	 5.962E-01	 1.812E+03	 3.578E-02	 1.010E-01	 1.972E-02	 2.945E-02	-3.998E-01	-1.021E+00	 1.249E-01	 4.785E-01	-9.837E-02	 1.330E-01	 4.282E+00	 4.906E+00	 6.311E+00	-4.535E-03
   11.8500	 9.526E+00	-5.500E+00	 0.000E+00	 2.404E+02	 9.394E-03	-6.367E-03	 1.695E-03	-2.143E-03	-2.645E-02	 2.854E-02	 8.071E-02	-1.844E-01	 5.017E+00	 5.523E-01	 1.812E+03	 3.684E-02	 1.025E-01	 2.220E-02	 2.834E-02	-3.506E-01	-1.046E+00	 2.884E-01	 7.942E-01	-3.104E-01	 3.983E-01	 5.685E+00	 3.231E+00	 6.460E+00	-4.680E-02
   11.9000	 9.526E+00	-5.500E+00	 0.000E+00	 2.596E+02	 8.646E-03	-9.098E-03	 1.979E-03	-3.901E-03	-2.981E-02	 5.315E-02	 9.021E-02	-2.411E-01	 5.084E+00	 6.029E-01	 1.812E+03	 3.749E-02	 1.025E-01	 6.459E-03	-2.116E-02	-2.237E-01	-2.875E-01	 1.897E-01	 9.104E-01	-3.274E-01	 3.635E-01	 6.348E+00	 1.141E+00	 6.411E+00	-7.154E-02
   11.9500	 9.526E+00	-5.500E+00	 0.000E+00	 2.788E+02	 2.277E-03	-6.704E-03	 2.684E-03	-5.924E-03	-4.045E-02	 8.164E-02	-6.092E-02	-1.933E-01	 5.103E+00	 5.630E-01	 1.812E+03	 3.745E-02	 1.013E-01	-9.331E-03	-3.028E-02	-4.064E-01	-1.166E+00	 1.272E-01	 9.536E-01	-4.014E-01	 9.646E-02	 6.438E+00	-1.065E+00	 6.316E+00	-9.961E-02
   12.0000	 9.526E+00	-5.500E+00	 0.000E+00	 2.981E+02	-6.633E-04	-3.108E-03	 2.050E-03	-7.131E-03	-3.184E-02	 9.878E-02	-1.295E-01	-1.167E-01	 5.172E+00	 6.551E-01	 1.812E+03	 3.668E-02	 9.833E-02	-1.513E-02	-6.434E-02	 2.206E-01	 1.099E+00	 9.355E-02	 7.912E-01	-2.766E-01	-1.395E-02	 5.684E+00	-3.103E+00	 5.990E+00	-1.055E-01
   12.0500	 9.526E+00	-5.500E+00	 0.000E+00	 3.173E+02	 7.549E-04	-3.528E-03	 1.092E-03	-8.190E-03	-1.743E-02	 1.132E-01	-6.611E-02	-1.438E-01	 5.254E+00	 6.202E-01	 1.812E+03	 3.570E-02	 9.517E-02	-2.587E-02	-8.711E-02	 1.751E-01	-3.334E-01	-2.642E-03	 5.549E-01	-1.490E-01	 5.981E-02	 4.437E+00	-4.909E+00	 5.827E+00	-9.105E-02
   12.1000	 9.526E+00	-5.500E+00	 0.000E+00	 3.366E+02	-9.279E-04	-6.088E-03	-3.201E-04	-7.857E-03	 2.878E-03	 1.083E-01	-8.067E-02	-2.029E-01	 5.308E+00	 6.654E-01	 1.812E+03	 3.455E-02	 9.148E-02	-3.128E-02	-7.135E-02	-6.569E-01	-6.492E-01	-1.444E-01	 1.785E-01	 7.399E-02	 2.133E-02	 2.592E+00	-5.972E+00	 5.748E+00	-7.282E-02
   12.1500	 9.526E+00	-5.500E+00	 0.000E+00	 3.558E+02	-6.627E-03	-6.625E-03	-1.821E-03	-7.462E-03	 2.398E-02	 1.024E-01	-1.910E-01	-2.230E-01	 5.411E+00	 6.547E-01	 1.812E+03	 3.298E-02	 8.869E-02	-2.108E-02	-1.947E-02	 2.957E-01	 1.044E+00	-3.249E-01	-2.538E-01	 3.286E-01	-1.833E-01	 4.605E-01	-6.497E+00	 5.592E+00	-3.763E-02
   12.2000	 9.526E+00	-5.500E+00	 0.000E+00	 1.505E+01	-1.062E-02	-3.632E-03	-3.248E-03	-6.526E-03	 4.391E-02	 8.928E-02	-2.733E-01	-1.657E-01	 5.410E+00	 6.167E-01	 1.812E+03	 3.203E-02	 8.801E-02	-1.510E-02	-4.018E-03	 3.798E-01	 1.061E+00	-4.291E-01	-6.860E-01	 5.522E-01	-3.213E-01	-1.647E+00	-6.213E+00	 5.564E+00	 2.334E-02
   12.2500	 9.526E+00	-5.500E+00	 0.000E+00	 3.429E+01	-8.700E-03	-1.068E-03	-5.438E-03	-4.981E-03	 7.489E-02	 6.758E-02	-2.284E-01	-1.154E-01	 5.384E+00	 6.065E-01	 1.812E+03	 3.168E-02	 8.935E-02	-1.234E-03	 5.388E-02	 1.343E-01	 5.560E-01	-4.346E-01	-1.144E+00	 8.555E-01	-2.268E-01	-3.678E+00	-5.334E+00	 5.606E+00	 3.342E-02
   12.3000	 9.526E+00	-5.500E+00	 0.000E+00	 5.353E+01	-4.042E-03	-1.912E-03	-6.775E-03	-3.201E-03	 9.385E-02	 4.263E-02	-1.322E-01	-1.287E-01	 5.376E+00	 5.688E-01	 1.812E+03	 3.187E-02	 9.193E-02	 1.364E-02	 5.288E-02	 6.029E-01	 1.014E+00	-3.604E-01	-1.453E+00	 9.889E-01	-4.384E-02	-5.208E+00	-3.827E+00	 5.672E+00	 6.034E-02
   12.3500	 9.526E+00	-5.500E+00	 0.000E+00	 7.278E+01	-2.663E-03	-6.303E-03	-8.014E-03	-7.059E-04	 1.108E-01	 6.395E-03	-1.242E-01	-2.585E-01	 5.204E+00	 6.364E-01	 1.812E+03	 3.301E-02	 9.564E-02	 2.307E-02	 6.339E-02	-3.932E-02	-1.588E+00	-2.889E-01	-1.712E+00	 1.147E+00	-1.208E-02	-6.322E+00	-1.900E+00	 5.910E+00	 3.774E-02
   12.4000	 9.526E+00	-5.500E+00	 0.000E+00	 9.202E+01	-4.522E-03	-2.014E-03	-8.044E-03	-4.426E-05	 1.110E-01	-2.062E-03	-1.685E-01	-1.430E-01	 5.150E+00	 6.315E-01	 1.812E+03	 3.456E-02	 9.843E-02	 3.341E-02	 5.892E-02	-5.786E-01	-8.305E-01	-3.323E-01	-1.760E+00	 1.146E+00	-9.327E-02	-6.551E+00	 1.844E-01	 6.062E+00	 2.644E-02
   12.4500	 9.526E+00	-5.500E+00	 0.000E+00	 1.113E+02	-5.934E-03	 7.325E-03	-7.628E-03	 1.329E-03	 1.048E-01	-2.060E-02	-2.084E-01	 6.783E-02	 5.125E+00	 5.828E-01	 1.812E+03	 3.565E-02	 1.002E-01	 2.251E-02	 3.762E-02	 3.686E-01	 8.204E-01	-3.364E-01	-1.671E+00	 1.097E+00	-1.513E-01	-6.072E+00	 2.385E+00	 6.200E+00	-1.462E-02
   12.5000	 9.526E+00	-5.500E+00	 0.000E+00	 1.305E+02	-3.950E-03	 1.012E-02	-6.860E-03	 1.753E-03	 9.392E-02	-2.711E-02	-1.742E-01	 1.005E-01	 5.095E+00	 6.070E-01	 1.812E+03	 3.673E-02	 1.017E-01	 1.468E-02	 4.557E-03	-2.136E-01	-9.145E-01	-2.601E-01	-1.451E+00	 9.710E-01	-8.025E-02	-4.935E+00	 4.199E+00	 6.415E+00	-3.516E-02
   12.5500	 9.526E+00	-5.500E+00	 0.000E+00	 1.497E+02	-1.230E-03	 4.879E-03	-5.359E-03	 2.492E-03	 7.280E-02	-3.795E-02	-1.219E-01	-1.853E-02	 5.083E+00	 5.926E-01	 1.812E+03	 3.724E-02	 1.015E-01	 4.289E-03	-6.333E-03	-3.187E-01	 1.088E-01	-1.623E-01	-1.077E+00	 7.345E-01	 1.306E-02	-3.202E+00	 5.627E+00	 6.341E+00	-9.261E-02
   12.6000	 9.526E+00	-5.500E+00	 0.000E+00	 1.690E+02	-1.399E-03	-5.053E-05	-3.673E-03	 2.490E-03	 4.912E-02	-3.765E-02	-1.247E-01	-1.033E-01	 5.122E+00	 5.961E-01	 1.812E+03	 3.704E-02	 1.004E-01	-1.124E-02	-5.429E-02	-1.117E-01	-1.079E+00	-1.804E-01	-6.421E-01	 5.111E-01	 2.531E-03	-1.195E+00	 6.401E+00	 6.219E+00	-8.575E-02
   12.6500	 9.526E+00	-5.500E+00	 0.000E+00	 1.882E+02	-5.039E-03	-2.213E-05	-1.126E-03	 1.494E-03	 1.287E-02	-2.336E-02	-2.120E-01	-9.169E-02	 5.219E+00	 5.789E-01	 1.812E+03	 3.652E-02	 9.793E-02	-1.388E-02	-4.428E-02	-5.304E-01	-1.475E+00	-1.543E-01	-1.362E-01	 1.581E-01	-1.674E-01	 1.052E+00	 6.483E+00	 6.055E+00	-1.289E-01
   12.7000	 9.526E+00	-5.500E+00	 0.000E+00	 2.075E+02	-2.844E-03	 7.419E-04	-2.733E-04	 5.055E-04	 1.743E-03	-9.043E-03	-1.361E-01	-6.047E-02	 5.358E+00	 6.205E-01	 1.812E+03	 3.560E-02	 9.441E-02	-1.496E-02	-6.116E-02	-5.409E-02	 1.062E+00	-1.943E-01	 2.097E-01	 7.325E-02	-2.989E-02	 3.024E+00	 5.836E+00	 5.731E+00	-8.200E-02
   12.7500	 9.526E+00	-5.500E+00	 0.000E+00	 2.267E+02	 5.263E-03	-3.522E-03	 1.018E-03	-1.267E-03	-1.663E-02	 1.603E-02	 1.234E-02	-1.368E-01	 5.359E+00	 6.379E-01	 1.812E+03	 3.424E-02	 9.115E-02	-3.415E-02	-6.691E-02	 4.268E-01	 1.363E+00	 9.004E-02	 5.899E-01	-1.878E-01	 2.570E-01	 4.750E+00	 4.425E+00	 5.681E+00	-6.276E-02
   12.8000	 9.526E+00	-5.500E+00	 0.000E+00	 2.460E+02	 9.559E-03	-9.258E-03	 1.718E-03	-2.413E-03	-2.697E-02	 3.230E-02	 7.587E-02	-2.420E-01	 5.275E+00	 6.153E-01	 1.812E+03	 3.304E-02	 8.954E-02	-2.099E-02	-2.050E-02	-6.830E-02	-2.966E-01	 3.049E-01	 8.268E-01	-3.076E-01	 3.943E-01	 5.913E+00	 2.662E+00	 5.734E+00	-1.586E-02
   12.8500	 9.526E+00	-5.500E+00	 0.000E+00	 2.652E+02	 5.951E-03	-1.021E-02	 2.279E-03	-4.478E-03	-3.449E-02	 6.146E-02	 2.028E-02	-2.550E-01	 5.371E+00	 6.792E-01	 1.812E+03	 3.217E-02	 8.895E-02	-1.151E-02	 1.314E-02	 2.306E-01	 1.406E+00	 1.590E-01	 9.338E-01	-3.621E-01	 2.468E-01	 6.407E+00	 5.146E-01	 5.599E+00	 9.992E-03
   12.9000	 9.526E+00	-5.500E+00	 0.000E+00	 2.844E+02	-7.521E-05	-6.324E-03	 2.665E-03	-6.194E-03	-3.986E-02	 8.552E-02	-9.447E-02	-1.828E-01	 5.416E+00	 5.960E-01	 1.812E+03	 3.184E-02	 9.078E-02	-2.537E-03	 3.697E-02	 2.007E-01	-7.347E-01	 1.120E-02	 9.253E-01	-3.763E-01	 1.313E-02	 6.300E+00	-1.627E+00	 5.665E+00	 5.895E-02
   12.9500	 9.526E+00	-5.500E+00	 0.000E+00	 3.037E+02	-1.557E-03	-2.731E-03	 1.827E-03	-7.459E-03	-2.833E-02	 1.033E-01	-1.325E-01	-1.117E-01	 5.391E+00	 6.250E-01	 1.812E+03	 3.225E-02	 9.298E-02	 2.057E-02	 7.402E-02	 1.684E-01	 5.814E-01	 8.433E-03	 7.309E-01	-2.359E-01	-4.396E-02	 5.376E+00	-3.659E+00	 5.679E+00	 2.792E-02
   13.0000	 9.526E+00	-5.500E+00	 0.000E+00	 3.229E+02	 1.524E-04	-3.476E-03	 8.957E-04	-8.249E-03	-1.469E-02	 1.140E-01	-7.834E-02	-1.416E-01	 5.241E+00	 6.020E-01	 1.812E+03	 3.331E-02	 9.580E-02	 2.856E-02	 4.616E-02	 5.228E-01	 8.157E-01	-2.610E-02	 4.776E-01	-1.191E-01	 4.563E-02	 4.001E+00	-5.256E+00	 5.770E+00	 5.850E-02
   13.0500	 9.526E+00	-5.500E+00	 0.000E+00	 3.422E+02	-1.952E-03	-5.771E-03	-8.561E-04	-7.762E-03	 1.032E-02	 1.068E-01	-1.041E-01	-2.018E-01	 5.181E+00	 6.123E-01	 1.812E+03	 3.462E-02	 9.808E-02	 1.599E-02	 2.732E-02	-8.255E-02	-2.340E-01	-1.567E-01	 5.061E-02	 1.620E-01	-1.516E-02	 1.994E+00	-6.188E+00	 6.113E+00	 1.618E-02
   13.1000	 9.526E+00	-5.500E+00	 0.000E+00	 1.406E+00	-6.886E-03	-5.312E-03	-2.188E-03	-7.336E-03	 2.919E-02	 1.006E-01	-1.939E-01	-2.015E-01	 5.118E+00	 6.096E-01	 1.812E+03	 3.572E-02	 1.001E-01	 2.352E-02	 3.851E-02	-3.511E-01	-1.212E+00	-3.171E-01	-3.714E-01	 3.743E-01	-1.925E-01	-1.533E-01	-6.530E+00	 6.336E+00	-1.954E-02
   13.1500	 9.526E+00	-5.500E+00	 0.000E+00	 2.065E+01	-9.035E-03	-2.235E-03	-4.023E-03	-6.111E-03	 5.492E-02	 8.341E-02	-2.381E-01	-1.401E-01	 5.100E+00	 6.137E-01	 1.812E+03	 3.658E-02	 1.008E-01	 1.480E-02	 6.665E-03	-1.012E-01	 5.096E-02	-3.904E-01	-8.362E-01	 6.559E-01	-2.556E-01	-2.294E+00	-6.022E+00	 6.309E+00	-4.857E-02
   13.2000	 9.526E+00	-5.500E+00	 0.000E+00	 3.989E+01	-6.439E-03	-8.020E-04	-5.992E-03	-4.527E-03	 8.258E-02	 6.119E-02	-1.886E-01	-1.102E-01	 5.050E+00	 6.344E-01	 1.812E+03	 3.700E-02	 1.010E-01	-2.609E-04	-8.892E-03	-3.415E-01	-1.213E+00	-3.463E-01	-1.259E+00	 9.098E-01	-1.450E-01	-4.227E+00	-4.974E+00	 6.291E+00	-7.811E-02
   13.2500	 9.526E+00	-5.500E+00	 0.000E+00	 5.913E+01	-2.959E-03	-2.606E-03	-7.202E-03	-2.400E-03	 9.977E-02	 3.226E-02	-1.147E-01	-1.076E-01	 5.164E+00	 5.920E-01	 1.812E+03	 3.680E-02	 9.937E-02	-2.986E-03	-3.479E-02	 1.270E-01	 9.571E-01	-3.163E-01	-1.542E+00	 1.039E+00	-9.064E-03	-5.610E+00	-3.268E+00	 6.004E+00	-1.061E-01
   13.3000	 9.526E+00	-5.500E+00	 0.000E+00	 7.837E+01	-3.429E-03	-5.614E-03	-8.225E-03	-4.506E-04	 1.137E-01	 3.330E-03	-1.417E-01	-2.249E-01	 5.234E+00	 6.357E-01	 1.812E+03	 3.630E-02	 9.719E-02	-1.594E-02	-7.069E-02	 2.025E-01	-2.838E-01	-3.144E-01	-1.757E+00	 1.182E+00	-4.539E-02	-6.496E+00	-1.277E+00	 5.935E+00	-9.153E-02
   13.3500	 9.526E+00	-5.500E+00	 0.000E+00	 9.762E+01	-5.929E-03	 5.970E-04	-7.848E-03	 2.978E-04	 1.081E-01	-7.419E-03	-2.016E-01	-1.134E-01	 5.291E+00	 6.390E-01	 1.812E+03	 3.550E-02	 9.405E-02	-2.767E-02	-6.744E-02	-6.781E-01	-7.463E-01	-3.705E-01	-1.740E+00	 1.124E+00	-1.457E-01	-6.449E+00	 8.661E-01	 5.907E+00	-8.667E-02
   13.4000	 9.526E+00	-5.500E+00	 0.000E+00	 1.169E+02	-6.392E-03	 9.048E-03	-7.447E-03	 1.576E-03	 1.022E-01	-2.435E-02	-2.197E-01	 9.042E-02	 5.330E+00	 6.076E-01	 1.812E+03	 3.406E-02	 9.121E-02	-2.197E-02	-3.016E-02	 1.758E-01	 6.539E-01	-3.530E-01	-1.624E+00	 1.076E+00	-1.680E-01	-5.805E+00	 2.961E+00	 5.757E+00	-5.688E-02
   13.4500	 9.526E+00	-5.500E+00	 0.000E+00	 1.361E+02	-3.455E-03	 9.135E-03	-6.441E-03	 1.833E-03	 8.809E-02	-2.774E-02	-1.623E-01	 1.008E-01	 5.331E+00	 6.139E-01	 1.812E+03	 3.298E-02	 8.990E-02	-1.928E-02	-2.058E-02	 2.214E-01	 6.098E-01	-2.657E-01	-1.350E+00	 9.056E-01	-6.243E-02	-4.466E+00	 4.621E+00	 5.684E+00	 3.636E-05
   13.5000	 9.526E+00	-5.500E+00	 0.000E+00	 1.553E+02	-1.092E-03	 2.149E-03	-4.900E-03	 2.699E-03	 6.644E-02	-4.084E-02	-1.154E-01	-7.056E-02	 5.345E+00	 6.523E-01	 1.812E+03	 3.227E-02	 9.013E-02	-9.500E-03	 3.248E-02	 1.439E-01	 5.857E-01	-2.015E-01	-9.608E-01	 6.705E-01	 1.697E-02	-2.669E+00	 5.910E+00	 5.645E+00	 1.456E-02
   13.5500	 9.526E+00	-5.500E+00	 0.000E+00	 1.746E+02	-2.023E-03	-1.885E-03	-3.066E-03	 2.318E-03	 4.088E-02	-3.553E-02	-1.253E-01	-1.502E-01	 5.143E+00	 6.770E-01	 1.812E+03	 3.200E-02	 9.147E-02	 3.712E-03	 2.771E-02	 6.040E-01	 1.291E+00	-1.352E-01	-4.954E-01	 4.640E-01	 2.936E-02	-5.783E-01	 6.432E+00	 5.633E+00	 4.140E-02
   13.6000	 9.526E+00	-5.500E+00	 0.000E+00	 1.938E+02	-5.936E-03	-3.677E-04	-6.841E-04	 1.321E-03	 6.094E-03	-2.068E-02	-2.511E-01	-8.894E-02	 5.223E+00	 6.376E-01	 1.812E+03	 3.266E-02	 9.405E-02	 1.404E-02	 4.042E-02	 8.236E-02	-1.281E+00	-1.228E-01	-1.996E-02	 1.154E-01	-1.920E-01	 1.626E+00	 6.399E+00	 5.813E+00	 4.059E-02
   13.6500	 9.526E+00	-5.500E+00	 0.000E+00	 2.131E+02	-1.349E-03	-2.288E-04	 2.406E-06	 6.194E-05	-2.894E-03	-2.573E-03	-1.367E-01	-7.017E-02	 5.251E+00	 6.310E-01	 1.812E+03	 3.383E-02	 9.619E-02	 2.539E-02	 4.991E-02	-5.775E-01	-8.824E-01	-2.828E-02	 3.062E-01	 1.405E-02	-4.151E-03	 3.528E+00	 5.506E+00	 5.961E+00	 3.504E-02
   13.7000	 9.526E+00	-5.500E+00	 0.000E+00	 2.323E+02	 7.387E-03	-4.672E-03	 1.406E-03	-1.653E-03	-2.167E-02	 2.152E-02	 6.953E-02	-1.572E-01	 5.242E+00	 6.246E-01	 1.812E+03	 3.469E-02	 9.791E-02	 2.210E-02	 4.435E-02	 4.338E-01	 9.399E-01	 1.144E-01	 6.913E-01	-2.572E-01	 3.471E-01	 5.169E+00	 3.977E+00	 6.067E+00	 2.536E-03
   13.7500	 9.526E+00	-5.500E+00	 0.000E+00	 2.516E+02	 9.533E-03	-9.027E-03	 1.783E-03	-2.956E-03	-2.741E-02	 3.975E-02	 9.398E-02	-2.448E-01	 5.124E+00	 5.951E-01	 1.812E+03	 3.579E-02	 9.980E-02	 1.679E-02	 1.608E-02	-1.406E-01	-6.577E-01	 2.527E-01	 8.640E-01	-3.070E-01	 3.968E-01	 6.130E+00	 2.070E+00	 6.291E+00	-1.190E-02
   13.8000	 9.526E+00	-5.500E+00	 0.000E+00	 2.708E+02	 4.342E-03	-8.128E-03	 2.541E-03	-5.205E-03	-3.872E-02	 7.163E-02	-3.192E-02	-2.167E-01	 5.077E+00	 6.018E-01	 1.812E+03	 3.652E-02	 1.004E-01	 1.078E-02	 1.654E-02	-2.492E-01	 1.071E-01	 2.143E-01	 9.568E-01	-3.970E-01	 1.700E-01	 6.476E+00	-1.534E-01	 6.276E+00	-6.940E-02
   13.8500	 9.526E+00	-5.500E+00	 0.000E+00	 2.900E+02	-3.996E-05	-4.151E-03	 2.442E-03	-6.634E-03	-3.706E-02	 9.178E-02	-1.059E-01	-1.375E-01	 5.082E+00	 5.814E-01	 1.812E+03	 3.668E-02	 1.003E-01	-2.224E-03	-3.318E-02	 5.244E-02	-5.920E-01	 8.136E-02	 8.806E-01	-3.420E-01	 8.989E-03	 6.098E+00	-2.307E+00	 6.115E+00	-8.145E-02
   13.9000	 9.526E+00	-5.500E+00	 0.000E+00	 3.093E+02	 1.980E-04	-2.625E-03	 1.446E-03	-7.855E-03	-2.259E-02	 1.087E-01	-8.382E-02	-1.190E-01	 5.175E+00	 5.879E-01	 1.812E+03	 3.665E-02	 9.900E-02	-6.718E-03	-3.027E-02	-5.866E-01	-1.717E+00	 1.582E-02	 6.609E-01	-1.902E-01	 3.506E-02	 5.020E+00	-4.257E+00	 6.118E+00	-1.236E-01
   13.9500	 9.526E+00	-5.500E+00	 0.000E+00	 3.285E+02	 5.443E-04	-4.656E-03	 4.293E-04	-8.143E-03	-7.920E-03	 1.125E-01	-6.246E-02	-1.670E-01	 5.186E+00	 6.533E-01	 1.812E+03	 3.614E-02	 9.629E-02	-8.435E-03	-5.033E-02	-3.005E-01	 1.751E-01	-5.204E-02	 3.603E-01	-5.437E-02	 6.549E-02	 3.445E+00	-5.598E+00	 5.880E+00	-8.215E-02
   14.0000	 9.526E+00	-5.500E+00	 0.000E+00	 3.478E+02	-3.765E-03	-6.665E-03	-1.351E-03	-7.640E-03	 1.719E-02	 1.050E-01	-1.426E-01	-2.205E-01	 5.298E+00	 6.666E-01	 1.812E+03	 3.499E-02	 9.317E-02	-2.821E-02	-5.808E-02	 4.420E-01	 1.553E+00	-2.105E-01	-8.747E-02	 2.456E-01	-8.270E-02	 1.337E+00	-6.357E+00	 5.788E+00	-7.621E-02
   14.0500	 9.526E+00	-5.500E+00	 0.000E+00	 7.004E+00	-9.124E-03	-5.061E-03	-2.524E-03	-7.038E-03	 3.380E-02	 9.641E-02	-2.417E-01	-1.957E-01	 5.325E+00	 6.415E-01	 1.812E+03	 3.390E-02	 9.144E-02	-2.276E-02	-3.406E-02	-1.194E-01	-2.570E-01	-3.816E-01	-4.960E-01	 4.348E-01	-2.746E-01	-7.767E-01	-6.437E+00	 5.835E+00	-3.515E-02
   14.1000	 9.526E+00	-5.500E+00	 0.000E+00	 2.625E+01	-9.773E-03	-1.816E-03	-4.620E-03	-5.632E-03	 6.350E-02	 7.668E-02	-2.457E-01	-1.319E-01	 5.402E+00	 6.186E-01	 1.812E+03	 3.293E-02	 9.033E-02	-1.454E-02	 8.321E-04	 1.732E-01	 1.099E+00	-4.636E-01	-9.698E-01	 7.509E-01	-2.719E-01	-2.877E+00	-5.750E+00	 5.688E+00	-1.110E-02
   14.1500	 9.526E+00	-5.500E+00	 0.000E+00	 4.549E+01	-6.097E-03	-1.243E-03	-6.271E-03	-4.026E-03	 8.664E-02	 5.415E-02	-1.769E-01	-1.189E-01	 5.302E+00	 6.039E-01	 1.812E+03	 3.231E-02	 9.114E-02	-9.904E-03	 1.395E-02	 2.523E-01	-4.840E-01	-3.808E-01	-1.339E+00	 9.402E-01	-1.249E-01	-4.646E+00	-4.551E+00	 5.675E+00	 3.903E-02
   14.2000	 9.526E+00	-5.500E+00	 0.000E+00	 6.473E+01	-3.006E-03	-4.319E-03	-7.508E-03	-1.585E-03	 1.040E-01	 2.009E-02	-1.194E-01	-1.685E-01	 5.312E+00	 5.953E-01	 1.812E+03	 3.238E-02	 9.247E-02	 1.193E-02	 5.401E-02	 3.687E-02	 2.769E-01	-3.232E-01	-1.613E+00	 1.079E+00	-1.814E-02	-5.924E+00	-2.717E+00	 5.644E+00	 1.079E-02
   14.2500	 9.526E+00	-5.500E+00	 0.000E+00	 8.397E+01	-3.805E-03	-4.286E-03	-8.233E-03	-3.506E-04	 1.138E-01	 2.742E-03	-1.481E-01	-1.676E-01	 5.285E+00	 6.016E-01	 1.812E+03	 3.302E-02	 9.433E-02	 2.217E-02	 3.490E-02	 4.933E-01	 9.544E-01	-3.388E-01	-1.768E+00	 1.180E+00	-5.950E-02	-6.558E+00	-7.235E-01	 5.689E+00	 5.570E-02