
FAST Summary File

Predictions were generated on 31-Mar-2015 at 20:28:54 using FAST (v8.10.00a-bjj, 31-Mar-2015), compiled as a 32-bit application using single precision
  compiled with
    NWTC Subroutine Library (v2.05.02a-bjj, 25-Feb-2015)
    ElastoDyn (v1.02.00a-bjj, 31-Mar-2015)
    AeroDyn (v14.03.01a-bjj, 13-Mar-2015)
    InflowWind (v2.01.00a-bjj, 13-Mar-2015)
    ServoDyn (v1.02.00a-bjj, 31-Mar-2015)
    HydroDyn (unknown version, unknown date) [not called]
    SubDyn (unknown version, unknown date) [not called]
    MAP (unknown version, unknown date) [not called]
    FEAMooring (unknown version, unknown date) [not called]
    MoorDyn (unknown version, unknown date) [not called]
    IceFloe (unknown version, unknown date) [not called]
    IceDyn (unknown version, unknown date) [not called]


Modeling a land-based turbine
Description from the FAST input file: 
  FAST Certification Test #06: AOC 15/50 with many DOFs with gen start, loss of grid, and tip-brake shutdown. Many parameters are pure fiction.

Interpolation order for input/output time histories: 1 (linear)
Number of correction iterations:  0


   Requested Time Steps  
  -------------------------------------------------
  Component          Time Step (s)    Subcycles (-)
  -----------------  ---------------  -------------
  FAST (glue code)    5.000E-03
  ElastoDyn           5.000E-03              1
  AeroDyn             5.000E-03              1
  ServoDyn            5.000E-03              1
  FAST output files   5.000E-02             10^-1


   Requested Channels in FAST Output File(s)  
  --------------------------------------------
  Number  Name        Units       Generated by
  ------  ----------  ----------  ------------
       1  Time        (s)         FAST
       2  WindVxi     (m/s)       InflowWind
       3  WindVyi     (m/s)       InflowWind
       4  WindVzi     (m/s)       InflowWind
       5  TipDxb3     (m)         ElastoDyn
       6  TipDyb3     (m)         ElastoDyn
       7  TipRDxb3    (deg)       ElastoDyn
       8  TipRDyb3    (deg)       ElastoDyn
       9  Spn5ALxb1   (m/s^2)     ElastoDyn
      10  Spn5ALyb1   (m/s^2)     ElastoDyn
      11  RotSpeed    (rpm)       ElastoDyn
      12  LSSGagV     (rpm)       ElastoDyn
      13  HSShftV     (rpm)       ElastoDyn
      14  RootFxb3    (kN)        ElastoDyn
      15  RootFyb3    (kN)        ElastoDyn
      16  RootMEdg3   (kN·m)      ElastoDyn
      17  RootMFlp3   (kN·m)      ElastoDyn
      18  Spn4MLxb1   (kN·m)      ElastoDyn
      19  Spn4MLyb1   (kN·m)      ElastoDyn
      20  LSSGagFxs   (kN)        ElastoDyn
      21  LSSGagFys   (kN)        ElastoDyn
      22  LSSGagFzs   (kN)        ElastoDyn
      23  LSShftTq    (kN·m)      ElastoDyn
      24  HSShftTq    (kN·m)      ElastoDyn
      25  LSShftPwr   (kW)        ElastoDyn
      26  HSShftPwr   (kW)        ElastoDyn
      27  GenTq       (kN·m)      ServoDyn
      28  GenPwr      (kW)        ServoDyn
