
Predictions were generated on 08-Oct-2015 at 00:12:04 using FAST (v8.12.00a-bjj, 6-Oct-2015), compiled as a 32-bit application using single precision
 linked with  NWTC Subroutine Library (v2.06.05a-bjj, 5-Oct-2015); ElastoDyn (v1.03.00a-bjj, 5-Oct-2015); InflowWind (v3.01.00a-adp, 5-Oct-2015); AeroDyn14 (v14.04.00a-bjj, 6-Oct-2015); ServoDyn (v1.03.01a-bjj, 5-Oct-2015)

Description from the FAST input file: FAST Certification Test #05: AWT-27CR2 with many DOFs with startup and shutdown and FF turbulence.

Time      	Wind1VelX 	Wind1VelY 	Wind1VelZ 	TipDxb1   	TipDyb1   	TipRDxb1  	TipRDyb1  	Spn3ALxb1 	Spn3ALyb1 	RotSpeed  	LSSGagV   	HSShftV   	RootFxb2  	RootFyb2  	Spn2MLxb1 	Spn2MLyb1 	LSShftTq  	HSShftTq  	LSShftPwr 	HSShftPwr 	YawBrFxn  	YawBrFyn  	YawBrFzn  	GenTq     	GenPwr    
(s)       	(m/s)     	(m/s)     	(m/s)     	(m)       	(m)       	(deg)     	(deg)     	(m/s^2)   	(m/s^2)   	(rpm)     	(rpm)     	(rpm)     	(kN)      	(kN)      	(kN·m)    	(kN·m)    	(kN·m)    	(kN·m)    	(kW)      	(kW)      	(kN)      	(kN)      	(kN)      	(kN·m)    	(kW)      
    5.0000	 1.200E+01	 0.000E+00	 0.000E+00	 5.955E-02	-7.738E-03	 5.376E-02	 5.193E-01	 1.892E-02	 6.063E-03	 1.794E-01	 1.794E-01	 4.037E+00	 2.891E+00	 1.307E-01	-4.458E-01	 5.795E+00	 3.514E-02	 1.562E-03	 6.603E-04	 6.603E-04	 1.658E+00	 6.636E-02	-7.178E+01	 0.000E+00	 0.000E+00
    5.0400	 1.200E+01	 0.000E+00	 0.000E+00	 5.985E-02	-7.780E-03	 5.408E-02	 5.224E-01	 1.496E-02	 7.048E-03	 1.799E-01	 1.799E-01	 4.048E+00	 2.901E+00	 1.334E-01	-4.421E-01	 5.821E+00	 3.770E-02	 1.675E-03	 7.102E-04	 7.101E-04	 1.587E+00	 6.788E-02	-7.179E+01	 0.000E+00	 0.000E+00
    5.0800	 1.200E+01	 0.000E+00	 0.000E+00	 6.007E-02	-7.814E-03	 5.433E-02	 5.247E-01	 1.350E-02	 7.813E-03	 1.804E-01	 1.804E-01	 4.059E+00	 2.912E+00	 1.362E-01	-4.381E-01	 5.841E+00	 3.763E-02	 1.672E-03	 7.108E-04	 7.108E-04	 1.557E+00	 6.931E-02	-7.179E+01	 0.000E+00	 0.000E+00
    5.1200	 1.200E+01	 0.000E+00	 0.000E+00	 6.017E-02	-7.834E-03	 5.447E-02	 5.255E-01	 1.431E-02	 8.290E-03	 1.808E-01	 1.808E-01	 4.069E+00	 2.922E+00	 1.392E-01	-4.336E-01	 5.849E+00	 3.424E-02	 1.522E-03	 6.483E-04	 6.484E-04	 1.568E+00	 7.056E-02	-7.180E+01	 0.000E+00	 0.000E+00
    5.1600	 1.200E+01	 0.000E+00	 0.000E+00	 6.017E-02	-7.842E-03	 5.452E-02	 5.251E-01	 1.529E-02	 8.378E-03	 1.812E-01	 1.812E-01	 4.078E+00	 2.931E+00	 1.423E-01	-4.288E-01	 5.849E+00	 2.810E-02	 1.249E-03	 5.333E-04	 5.334E-04	 1.616E+00	 7.168E-02	-7.180E+01	 0.000E+00	 0.000E+00
    5.2000	 1.200E+01	 0.000E+00	 0.000E+00	 6.014E-02	-7.848E-03	 5.455E-02	 5.243E-01	 1.541E-02	 8.410E-03	 1.815E-01	 1.816E-01	 4.085E+00	 2.941E+00	 1.455E-01	-4.239E-01	 5.847E+00	 2.078E-02	 9.236E-04	 3.950E-04	 3.951E-04	 1.700E+00	 7.267E-02	-7.180E+01	 0.000E+00	 0.000E+00
    5.2400	 1.200E+01	 0.000E+00	 0.000E+00	 6.016E-02	-7.859E-03	 5.461E-02	 5.240E-01	 8.725E-03	 7.960E-03	 1.817E-01	 1.818E-01	 4.090E+00	 2.953E+00	 1.486E-01	-4.196E-01	 5.851E+00	 1.426E-02	 6.338E-04	 2.714E-04	 2.715E-04	 1.814E+00	 7.363E-02	-7.180E+01	 0.000E+00	 0.000E+00
    5.2800	 1.200E+01	 0.000E+00	 0.000E+00	 6.031E-02	-7.886E-03	 5.479E-02	 5.251E-01	-5.417E-03	 7.326E-03	 1.819E-01	 1.819E-01	 4.093E+00	 2.969E+00	 1.516E-01	-4.162E-01	 5.867E+00	 1.009E-02	 4.483E-04	 1.922E-04	 1.922E-04	 1.951E+00	 7.453E-02	-7.181E+01	 0.000E+00	 0.000E+00
    5.3200	 1.200E+01	 0.000E+00	 0.000E+00	 6.062E-02	-7.931E-03	 5.512E-02	 5.279E-01	-2.842E-02	 6.541E-03	 1.820E-01	 1.820E-01	 4.096E+00	 2.988E+00	 1.545E-01	-4.139E-01	 5.898E+00	 8.977E-03	 3.990E-04	 1.711E-04	 1.711E-04	 2.102E+00	 7.545E-02	-7.182E+01	 0.000E+00	 0.000E+00
    5.3600	 1.200E+01	 0.000E+00	 0.000E+00	 6.106E-02	-7.992E-03	 5.556E-02	 5.322E-01	-6.001E-02	 5.473E-03	 1.822E-01	 1.822E-01	 4.099E+00	 3.009E+00	 1.571E-01	-4.124E-01	 5.941E+00	 1.043E-02	 4.637E-04	 1.990E-04	 1.990E-04	 2.257E+00	 7.643E-02	-7.183E+01	 0.000E+00	 0.000E+00
    5.4000	 1.200E+01	 0.000E+00	 0.000E+00	 6.158E-02	-8.061E-03	 5.607E-02	 5.374E-01	-9.164E-02	 4.665E-03	 1.823E-01	 1.823E-01	 4.102E+00	 3.031E+00	 1.597E-01	-4.113E-01	 5.990E+00	 1.325E-02	 5.889E-04	 2.530E-04	 2.530E-04	 2.405E+00	 7.738E-02	-7.184E+01	 0.000E+00	 0.000E+00
    5.4400	 1.200E+01	 0.000E+00	 0.000E+00	 6.208E-02	-8.128E-03	 5.656E-02	 5.423E-01	-1.208E-01	 4.000E-03	 1.825E-01	 1.825E-01	 4.106E+00	 3.052E+00	 1.624E-01	-4.101E-01	 6.036E+00	 1.574E-02	 6.994E-04	 3.008E-04	 3.007E-04	 2.536E+00	 7.830E-02	-7.185E+01	 0.000E+00	 0.000E+00
    5.4800	 1.200E+01	 0.000E+00	 0.000E+00	 6.248E-02	-8.184E-03	 5.697E-02	 5.462E-01	-1.424E-01	 3.587E-03	 1.827E-01	 1.827E-01	 4.111E+00	 3.070E+00	 1.651E-01	-4.080E-01	 6.073E+00	 1.632E-02	 7.254E-04	 3.123E-04	 3.123E-04	 2.640E+00	 7.920E-02	-7.186E+01	 0.000E+00	 0.000E+00
    5.5200	 1.200E+01	 0.000E+00	 0.000E+00	 6.273E-02	-8.222E-03	 5.724E-02	 5.485E-01	-1.539E-01	 3.439E-03	 1.829E-01	 1.829E-01	 4.115E+00	 3.084E+00	 1.680E-01	-4.049E-01	 6.095E+00	 1.412E-02	 6.274E-04	 2.703E-04	 2.704E-04	 2.711E+00	 8.002E-02	-7.187E+01	 0.000E+00	 0.000E+00
    5.5600	 1.200E+01	 0.000E+00	 0.000E+00	 6.283E-02	-8.242E-03	 5.738E-02	 5.492E-01	-1.550E-01	 3.773E-03	 1.830E-01	 1.831E-01	 4.119E+00	 3.094E+00	 1.711E-01	-4.006E-01	 6.103E+00	 9.379E-03	 4.168E-04	 1.798E-04	 1.798E-04	 2.744E+00	 8.076E-02	-7.187E+01	 0.000E+00	 0.000E+00
    5.6000	 1.200E+01	 0.000E+00	 0.000E+00	 6.281E-02	-8.248E-03	 5.741E-02	 5.487E-01	-1.478E-01	 4.417E-03	 1.831E-01	 1.831E-01	 4.121E+00	 3.101E+00	 1.742E-01	-3.953E-01	 6.101E+00	 3.227E-03	 1.434E-04	 6.187E-05	 6.188E-05	 2.738E+00	 8.150E-02	-7.187E+01	 0.000E+00	 0.000E+00
    5.6400	 1.200E+01	 0.000E+00	 0.000E+00	 6.274E-02	-8.249E-03	 5.741E-02	 5.477E-01	-1.350E-01	 5.515E-03	 1.831E-01	 1.831E-01	 4.121E+00	 3.105E+00	 1.775E-01	-3.895E-01	 6.095E+00	-3.154E-03	-1.402E-04	-6.047E-05	-6.048E-05	 2.695E+00	 8.227E-02	-7.187E+01	 0.000E+00	 0.000E+00
    5.6800	 1.200E+01	 0.000E+00	 0.000E+00	 6.269E-02	-8.250E-03	 5.741E-02	 5.469E-01	-1.208E-01	 6.738E-03	 1.830E-01	 1.831E-01	 4.119E+00	 3.109E+00	 1.806E-01	-3.836E-01	 6.091E+00	-8.455E-03	-3.758E-04	-1.621E-04	-1.621E-04	 2.618E+00	 8.319E-02	-7.187E+01	 0.000E+00	 0.000E+00
    5.7200	 1.200E+01	 0.000E+00	 0.000E+00	 6.268E-02	-8.258E-03	 5.747E-02	 5.468E-01	-1.068E-01	 8.274E-03	 1.829E-01	 1.829E-01	 4.116E+00	 3.112E+00	 1.837E-01	-3.778E-01	 6.091E+00	-1.199E-02	-5.329E-04	-2.297E-04	-2.297E-04	 2.512E+00	 8.421E-02	-7.187E+01	 0.000E+00	 0.000E+00
    5.7600	 1.200E+01	 0.000E+00	 0.000E+00	 6.275E-02	-8.273E-03	 5.758E-02	 5.475E-01	-9.523E-02	 9.799E-03	 1.828E-01	 1.828E-01	 4.112E+00	 3.115E+00	 1.867E-01	-3.723E-01	 6.097E+00	-1.373E-02	-6.104E-04	-2.628E-04	-2.629E-04	 2.383E+00	 8.539E-02	-7.187E+01	 0.000E+00	 0.000E+00
    5.8000	 1.200E+01	 0.000E+00	 0.000E+00	 6.285E-02	-8.292E-03	 5.773E-02	 5.486E-01	-8.495E-02	 1.156E-02	 1.826E-01	 1.826E-01	 4.108E+00	 3.118E+00	 1.896E-01	-3.669E-01	 6.107E+00	-1.440E-02	-6.400E-04	-2.753E-04	-2.754E-04	 2.238E+00	 8.669E-02	-7.187E+01	 0.000E+00	 0.000E+00
    5.8400	 1.200E+01	 0.000E+00	 0.000E+00	 6.294E-02	-8.311E-03	 5.788E-02	 5.497E-01	-7.232E-02	 1.334E-02	 1.824E-01	 1.824E-01	 4.104E+00	 3.121E+00	 1.926E-01	-3.614E-01	 6.115E+00	-1.514E-02	-6.727E-04	-2.891E-04	-2.891E-04	 2.085E+00	 8.808E-02	-7.187E+01	 0.000E+00	 0.000E+00
    5.8800	 1.200E+01	 0.000E+00	 0.000E+00	 6.299E-02	-8.323E-03	 5.798E-02	 5.503E-01	-5.683E-02	 1.516E-02	 1.822E-01	 1.822E-01	 4.099E+00	 3.123E+00	 1.956E-01	-3.555E-01	 6.118E+00	-1.695E-02	-7.534E-04	-3.234E-04	-3.234E-04	 1.932E+00	 8.947E-02	-7.187E+01	 0.000E+00	 0.000E+00
    5.9200	 1.200E+01	 0.000E+00	 0.000E+00	 6.296E-02	-8.327E-03	 5.801E-02	 5.500E-01	-3.938E-02	 1.689E-02	 1.819E-01	 1.820E-01	 4.094E+00	 3.123E+00	 1.986E-01	-3.493E-01	 6.114E+00	-2.045E-02	-9.091E-04	-3.897E-04	-3.898E-04	 1.788E+00	 9.086E-02	-7.187E+01	 0.000E+00	 0.000E+00
    5.9600	 1.200E+01	 0.000E+00	 0.000E+00	 6.286E-02	-8.323E-03	 5.798E-02	 5.489E-01	-1.922E-02	 1.855E-02	 1.816E-01	 1.817E-01	 4.087E+00	 3.123E+00	 2.018E-01	-3.426E-01	 6.105E+00	-2.571E-02	-1.142E-03	-4.890E-04	-4.890E-04	 1.660E+00	 9.218E-02	-7.187E+01	 0.000E+00	 0.000E+00
    6.0000	 1.200E+01	 0.000E+00	 0.000E+00	 6.272E-02	-8.315E-03	 5.792E-02	 5.474E-01	 1.924E-05	 1.995E-02	 1.813E-01	 1.813E-01	 4.079E+00	 3.124E+00	 2.050E-01	-3.359E-01	 6.092E+00	-3.188E-02	-1.417E-03	-6.051E-04	-6.052E-04	 1.555E+00	 9.347E-02	-7.186E+01	-1.104E+01	-3.045E+03
    6.0400	 1.200E+01	 0.000E+00	 0.000E+00	 6.484E-02	 2.753E-02	-2.158E-01	 6.562E-01	-1.936E+00	-3.331E+01	 1.793E+00	 2.461E+00	 5.538E+01	 4.284E+00	 1.272E+01	-3.378E+01	 4.979E+00	-1.638E+02	-7.278E+00	-3.074E+01	-4.221E+01	 2.465E+00	-5.901E+00	-7.304E+01	-1.130E+01	-3.046E+03
    6.0800	 1.200E+01	 0.000E+00	 0.000E+00	 5.874E-02	 3.741E-02	-2.839E-01	 8.022E-01	 6.197E+00	-3.530E+01	 3.350E+00	 3.380E+00	 7.604E+01	 3.128E+00	 1.348E+01	-3.552E+01	 3.113E+00	-1.749E+02	-7.773E+00	-6.136E+01	-6.190E+01	 1.852E+00	-1.279E-01	-7.198E+01	-1.141E+01	-3.046E+03
    6.1200	 1.200E+01	 0.000E+00	 0.000E+00	 3.002E-02	 2.365E-02	-1.826E-01	 3.431E-01	 3.275E+00	-2.450E+01	 5.123E+00	 4.891E+00	 1.100E+02	 2.963E+00	 9.057E+00	-2.168E+01	 1.647E+00	-1.112E+02	-4.941E+00	-5.964E+01	-5.694E+01	 8.101E-01	 6.600E-02	-7.184E+01	-1.160E+01	-3.045E+03
    6.1600	 1.200E+01	 0.000E+00	 0.000E+00	 4.346E-03	 2.539E-02	-2.016E-01	-9.185E-02	-1.448E-01	-2.493E+01	 6.813E+00	 6.853E+00	 1.542E+02	 3.195E+00	 9.861E+00	-2.299E+01	 3.347E-02	-1.187E+02	-5.276E+00	-8.469E+01	-8.519E+01	 1.337E+00	-6.631E+00	-7.236E+01	-1.184E+01	-3.043E+03
    6.2000	 1.200E+01	 0.000E+00	 0.000E+00	 1.370E-03	 3.145E-02	-2.418E-01	 4.634E-02	 6.803E+00	-2.843E+01	 8.477E+00	 8.577E+00	 1.930E+02	 2.309E+00	 1.206E+01	-2.676E+01	-1.150E+00	-1.450E+02	-6.443E+00	-1.287E+02	-1.302E+02	 1.536E+00	-3.587E+00	-7.197E+01	-1.205E+01	-3.040E+03
    6.2400	 1.200E+01	 0.000E+00	 0.000E+00	 6.587E-03	 3.256E-02	-2.498E-01	 1.212E-01	 5.988E+00	-3.018E+01	 1.019E+01	 1.019E+01	 2.293E+02	 2.637E+00	 1.180E+01	-2.787E+01	-5.669E-01	-1.446E+02	-6.428E+00	-1.544E+02	-1.543E+02	 7.300E-01	 1.899E+00	-7.246E+01	-1.226E+01	-3.035E+03
    6.2800	 1.200E+01	 0.000E+00	 0.000E+00	 1.742E-02	 3.013E-02	-2.348E-01	 1.453E-01	 2.319E+00	-2.985E+01	 1.197E+01	 1.194E+01	 2.687E+02	 3.432E+00	 1.136E+01	-2.728E+01	 1.021E+00	-1.374E+02	-6.107E+00	-1.722E+02	-1.718E+02	 1.213E+00	-1.242E+00	-7.346E+01	-1.248E+01	-3.029E+03
    6.3200	 1.200E+01	 0.000E+00	 0.000E+00	 3.666E-02	 2.558E-02	-1.979E-01	 4.091E-01	 4.475E+00	-2.834E+01	 1.378E+01	 1.379E+01	 3.104E+02	 3.402E+00	 1.240E+01	-2.516E+01	 2.575E+00	-1.406E+02	-6.247E+00	-2.028E+02	-2.030E+02	 2.445E+00	-4.151E+00	-7.428E+01	-1.272E+01	-3.020E+03
    6.3600	 1.200E+01	 0.000E+00	 0.000E+00	 5.201E-02	 2.442E-02	-1.883E-01	 5.998E-01	 4.326E+00	-2.983E+01	 1.559E+01	 1.563E+01	 3.516E+02	 3.774E+00	 1.322E+01	-2.618E+01	 3.849E+00	-1.488E+02	-6.615E+00	-2.430E+02	-2.436E+02	 2.457E+00	-3.904E-01	-7.530E+01	-1.295E+01	-3.008E+03
    6.4000	 1.200E+01	 0.000E+00	 0.000E+00	 5.667E-02	 2.753E-02	-2.131E-01	 6.339E-01	 3.538E+00	-3.316E+01	 1.742E+01	 1.744E+01	 3.924E+02	 4.272E+00	 1.316E+01	-2.953E+01	 4.189E+00	-1.534E+02	-6.818E+00	-2.798E+02	-2.802E+02	 2.253E+00	 2.280E+00	-7.570E+01	-1.318E+01	-2.994E+03
    6.4400	 1.200E+01	 0.000E+00	 0.000E+00	 5.123E-02	 2.907E-02	-2.233E-01	 6.157E-01	 6.282E+00	-3.374E+01	 1.926E+01	 1.928E+01	 4.337E+02	 4.053E+00	 1.363E+01	-2.968E+01	 3.371E+00	-1.562E+02	-6.944E+00	-3.152E+02	-3.154E+02	 2.832E+00	 3.911E-01	-7.578E+01	-1.340E+01	-2.975E+03
    6.4800	 1.200E+01	 0.000E+00	 0.000E+00	 3.530E-02	 2.942E-02	-2.258E-01	 4.399E-01	 7.925E+00	-3.346E+01	 2.110E+01	 2.112E+01	 4.753E+02	 3.854E+00	 1.468E+01	-2.839E+01	 1.949E+00	-1.623E+02	-7.213E+00	-3.585E+02	-3.590E+02	 3.170E+00	 6.595E-02	-7.635E+01	-1.362E+01	-2.952E+03
    6.5200	 1.200E+01	 0.000E+00	 0.000E+00	 1.546E-02	 3.346E-02	-2.572E-01	 2.116E-01	 9.378E+00	-3.602E+01	 2.290E+01	 2.294E+01	 5.161E+02	 3.844E+00	 1.521E+01	-3.023E+01	 1.743E-01	-1.705E+02	-7.576E+00	-4.088E+02	-4.094E+02	 2.965E+00	 2.928E+00	-7.624E+01	-1.382E+01	-2.925E+03
    6.5600	 1.200E+01	 0.000E+00	 0.000E+00	-8.982E-04	 3.896E-02	-2.975E-01	 8.187E-02	 1.289E+01	-3.906E+01	 2.466E+01	 2.470E+01	 5.557E+02	 3.633E+00	 1.554E+01	-3.288E+01	-1.568E+00	-1.785E+02	-7.933E+00	-4.609E+02	-4.616E+02	 2.987E+00	 4.350E+00	-7.536E+01	-1.399E+01	-2.893E+03
    6.6000	 1.200E+01	 0.000E+00	 0.000E+00	-1.250E-02	 4.076E-02	-3.106E-01	-2.828E-02	 1.514E+01	-3.991E+01	 2.637E+01	 2.641E+01	 5.942E+02	 3.547E+00	 1.637E+01	-3.283E+01	-2.535E+00	-1.859E+02	-8.261E+00	-5.133E+02	-5.140E+02	 3.421E+00	 3.916E+00	-7.515E+01	-1.414E+01	-2.855E+03
    6.6400	 1.200E+01	 0.000E+00	 0.000E+00	-1.657E-02	 4.075E-02	-3.111E-01	-9.070E-02	 1.609E+01	-4.087E+01	 2.803E+01	 2.806E+01	 6.314E+02	 3.805E+00	 1.714E+01	-3.265E+01	-2.614E+00	-1.932E+02	-8.585E+00	-5.669E+02	-5.676E+02	 4.088E+00	 5.060E+00	-7.496E+01	-1.425E+01	-2.811E+03
    6.6800	 1.200E+01	 0.000E+00	 0.000E+00	-1.080E-02	 4.252E-02	-3.239E-01	-1.070E-03	 1.836E+01	-4.361E+01	 2.961E+01	 2.965E+01	 6.671E+02	 4.203E+00	 1.739E+01	-3.492E+01	-2.088E+00	-2.012E+02	-8.941E+00	-6.238E+02	-6.246E+02	 4.852E+00	 7.530E+00	-7.349E+01	-1.433E+01	-2.762E+03
    6.7200	 1.200E+01	 0.000E+00	 0.000E+00	-1.075E-03	 4.414E-02	-3.348E-01	 1.497E-01	 2.104E+01	-4.595E+01	 3.111E+01	 3.115E+01	 7.008E+02	 4.600E+00	 1.756E+01	-3.700E+01	-1.328E+00	-2.086E+02	-9.271E+00	-6.796E+02	-6.804E+02	 5.597E+00	 8.804E+00	-7.150E+01	-1.436E+01	-2.708E+03
    6.7600	 1.200E+01	 0.000E+00	 0.000E+00	 4.010E-03	 4.424E-02	-3.353E-01	 2.155E-01	 2.319E+01	-4.686E+01	 3.255E+01	 3.257E+01	 7.328E+02	 4.995E+00	 1.774E+01	-3.748E+01	-8.199E-01	-2.136E+02	-9.493E+00	-7.279E+02	-7.285E+02	 6.546E+00	 9.190E+00	-6.963E+01	-1.435E+01	-2.649E+03
    6.8000	 1.200E+01	 0.000E+00	 0.000E+00	 1.593E-04	 4.555E-02	-3.449E-01	 1.862E-01	 2.615E+01	-4.787E+01	 3.392E+01	 3.393E+01	 7.635E+02	 5.201E+00	 1.755E+01	-3.827E+01	-1.227E+00	-2.166E+02	-9.628E+00	-7.695E+02	-7.698E+02	 7.642E+00	 1.006E+01	-6.729E+01	-1.429E+01	-2.583E+03
    6.8400	 1.200E+01	 0.000E+00	 0.000E+00	-1.424E-02	 4.899E-02	-3.700E-01	 5.922E-02	 3.018E+01	-4.898E+01	 3.524E+01	 3.524E+01	 7.930E+02	 5.116E+00	 1.704E+01	-3.955E+01	-2.733E+00	-2.183E+02	-9.704E+00	-8.056E+02	-8.058E+02	 8.317E+00	 1.064E+01	-6.468E+01	-1.419E+01	-2.512E+03
    6.8800	 1.200E+01	 0.000E+00	 0.000E+00	-3.800E-02	 5.210E-02	-3.930E-01	-1.834E-01	 3.407E+01	-4.875E+01	 3.652E+01	 3.651E+01	 8.215E+02	 4.771E+00	 1.648E+01	-3.940E+01	-4.952E+00	-2.170E+02	-9.646E+00	-8.299E+02	-8.298E+02	 8.603E+00	 9.970E+00	-6.289E+01	-1.402E+01	-2.433E+03
    6.9200	 1.200E+01	 0.000E+00	 0.000E+00	-6.502E-02	 5.384E-02	-4.058E-01	-4.740E-01	 3.777E+01	-4.720E+01	 3.779E+01	 3.776E+01	 8.497E+02	 4.289E+00	 1.580E+01	-3.787E+01	-7.339E+00	-2.117E+02	-9.409E+00	-8.378E+02	-8.372E+02	 9.120E+00	 8.793E+00	-6.213E+01	-1.380E+01	-2.346E+03
    6.9600	 1.200E+01	 0.000E+00	 0.000E+00	-8.685E-02	 5.475E-02	-4.123E-01	-7.070E-01	 4.090E+01	-4.527E+01	 3.907E+01	 3.903E+01	 8.782E+02	 3.839E+00	 1.482E+01	-3.630E+01	-9.175E+00	-2.032E+02	-9.030E+00	-8.313E+02	-8.304E+02	 9.851E+00	 7.772E+00	-6.200E+01	-1.350E+01	-2.246E+03
    7.0000	 1.200E+01	 0.000E+00	 0.000E+00	-9.669E-02	 5.408E-02	-4.067E-01	-8.069E-01	 4.320E+01	-4.307E+01	 4.038E+01	 4.032E+01	 9.073E+02	 3.531E+00	 1.360E+01	-3.453E+01	-9.870E+00	-1.917E+02	-8.519E+00	-8.105E+02	-8.094E+02	 1.049E+01	 6.357E+00	-6.264E+01	-1.309E+01	-2.131E+03
    7.0400	 1.200E+01	 0.000E+00	 0.000E+00	-9.244E-02	 5.034E-02	-3.779E-01	-7.614E-01	 4.425E+01	-4.029E+01	 4.173E+01	 4.166E+01	 9.373E+02	 3.399E+00	 1.223E+01	-3.146E+01	-9.204E+00	-1.759E+02	-7.819E+00	-7.688E+02	-7.674E+02	 1.139E+01	 4.383E+00	-6.436E+01	-1.256E+01	-1.998E+03
    7.0800	 1.200E+01	 0.000E+00	 0.000E+00	-7.613E-02	 4.429E-02	-3.320E-01	-6.001E-01	 4.421E+01	-3.642E+01	 4.313E+01	 4.304E+01	 9.684E+02	 3.446E+00	 1.063E+01	-2.801E+01	-7.404E+00	-1.566E+02	-6.960E+00	-7.073E+02	-7.058E+02	 1.287E+01	 2.474E+00	-6.688E+01	-1.187E+01	-1.842E+03
    7.1200	 1.200E+01	 0.000E+00	 0.000E+00	-5.084E-02	 3.863E-02	-2.895E-01	-3.426E-01	 4.360E+01	-3.289E+01	 4.455E+01	 4.445E+01	 1.000E+03	 3.609E+00	 8.628E+00	-2.610E+01	-4.858E+00	-1.369E+02	-6.084E+00	-6.385E+02	-6.372E+02	 1.450E+01	 6.224E-01	-6.973E+01	-1.099E+01	-1.663E+03
    7.1600	 1.200E+01	 0.000E+00	 0.000E+00	-2.019E-02	 3.318E-02	-2.486E-01	-2.693E-02	 4.279E+01	-2.904E+01	 4.593E+01	 4.584E+01	 1.031E+03	 3.765E+00	 6.415E+00	-2.483E+01	-1.873E+00	-1.168E+02	-5.193E+00	-5.620E+02	-5.608E+02	 1.594E+01	-1.325E+00	-7.296E+01	-9.939E+00	-1.465E+03
    7.2000	 1.200E+01	 0.000E+00	 0.000E+00	 1.345E-02	 2.718E-02	-2.042E-01	 3.034E-01	 4.138E+01	-2.517E+01	 4.725E+01	 4.715E+01	 1.061E+03	 3.944E+00	 4.173E+00	-2.344E+01	 1.486E+00	-9.705E+01	-4.313E+00	-4.802E+02	-4.792E+02	 1.754E+01	-3.042E+00	-7.620E+01	-8.738E+00	-1.257E+03
    7.2400	 1.200E+01	 0.000E+00	 0.000E+00	 4.952E-02	 2.002E-02	-1.515E-01	 6.474E-01	 3.937E+01	-2.160E+01	 4.846E+01	 4.837E+01	 1.088E+03	 4.096E+00	 2.064E+00	-2.120E+01	 5.137E+00	-7.705E+01	-3.424E+00	-3.910E+02	-3.903E+02	 1.940E+01	-3.886E+00	-7.885E+01	-7.443E+00	-1.046E+03
    7.2800	 1.200E+01	 0.000E+00	 0.000E+00	 8.701E-02	 1.167E-02	-9.019E-02	 9.880E-01	 3.663E+01	-1.801E+01	 4.955E+01	 4.945E+01	 1.113E+03	 4.234E+00	 2.231E-01	-1.815E+01	 9.013E+00	-5.739E+01	-2.551E+00	-2.978E+02	-2.972E+02	 2.126E+01	-3.926E+00	-8.025E+01	-6.114E+00	-8.417E+02
    7.3200	 1.200E+01	 0.000E+00	 0.000E+00	 1.267E-01	 3.621E-03	-3.155E-02	 1.346E+00	 3.365E+01	-1.460E+01	 5.048E+01	 5.040E+01	 1.134E+03	 4.437E+00	-1.398E+00	-1.589E+01	 1.312E+01	-4.049E+01	-1.799E+00	-2.140E+02	-2.137E+02	 2.312E+01	-3.741E+00	-8.022E+01	-4.824E+00	-6.526E+02
    7.3600	 1.200E+01	 0.000E+00	 0.000E+00	 1.652E-01	-2.778E-03	 1.407E-02	 1.684E+00	 3.007E+01	-1.187E+01	 5.124E+01	 5.118E+01	 1.152E+03	 4.718E+00	-2.778E+00	-1.505E+01	 1.703E+01	-2.771E+01	-1.232E+00	-1.487E+02	-1.485E+02	 2.520E+01	-3.408E+00	-7.909E+01	-3.660E+00	-4.886E+02
    7.4000	 1.200E+01	 0.000E+00	 0.000E+00	 1.961E-01	-8.009E-03	 5.043E-02	 1.929E+00	 2.624E+01	-9.405E+00	 5.184E+01	 5.180E+01	 1.165E+03	 4.905E+00	-3.680E+00	-1.433E+01	 2.019E+01	-1.840E+01	-8.177E-01	-9.988E+01	-9.979E+01	 2.736E+01	-2.686E+00	-7.681E+01	-2.683E+00	-3.553E+02
    7.4400	 1.200E+01	 0.000E+00	 0.000E+00	 2.167E-01	-1.273E-02	 8.316E-02	 2.065E+00	 2.323E+01	-6.828E+00	 5.229E+01	 5.226E+01	 1.176E+03	 4.955E+00	-4.007E+00	-1.293E+01	 2.235E+01	-1.161E+01	-5.161E-01	-6.359E+01	-6.355E+01	 2.916E+01	-1.773E+00	-7.346E+01	-1.907E+00	-2.519E+02
    7.4800	 1.200E+01	 0.000E+00	 0.000E+00	 2.266E-01	-1.630E-02	 1.084E-01	 2.116E+00	 2.131E+01	-4.487E+00	 5.263E+01	 5.261E+01	 1.184E+03	 4.772E+00	-3.984E+00	-1.131E+01	 2.333E+01	-6.534E+00	-2.904E-01	-3.601E+01	-3.600E+01	 3.039E+01	-1.071E+00	-6.986E+01	-1.313E+00	-1.741E+02
    7.5200	 1.200E+01	 0.000E+00	 0.000E+00	 2.246E-01	-1.808E-02	 1.214E-01	 2.075E+00	 2.065E+01	-2.629E+00	 5.287E+01	 5.286E+01	 1.189E+03	 4.257E+00	-3.761E+00	-9.774E+00	 2.301E+01	-2.833E+00	-1.259E-01	-1.568E+01	-1.568E+01	 3.112E+01	-5.970E-01	-6.689E+01	-8.673E-01	-1.167E+02
    7.5600	 1.200E+01	 0.000E+00	 0.000E+00	 2.100E-01	-1.844E-02	 1.241E-01	 1.906E+00	 2.039E+01	-1.077E+00	 5.305E+01	 5.304E+01	 1.193E+03	 3.519E+00	-3.337E+00	-8.055E+00	 2.152E+01	-1.771E-01	-7.870E-03	-9.837E-01	-9.835E-01	 3.140E+01	-8.639E-02	-6.488E+01	-5.404E-01	-7.487E+01
    7.6000	 1.200E+01	 0.000E+00	 0.000E+00	 1.870E-01	-1.801E-02	 1.205E-01	 1.639E+00	 2.022E+01	 1.405E-01	 5.318E+01	 5.317E+01	 1.196E+03	 2.689E+00	-2.819E+00	-6.170E+00	 1.937E+01	 2.147E+00	 9.544E-02	 1.196E+01	 1.196E+01	 3.119E+01	 5.679E-01	-6.415E+01	-3.007E-01	-4.443E+01
    7.6400	 1.200E+01	 0.000E+00	 0.000E+00	 1.635E-01	-1.732E-02	 1.154E-01	 1.376E+00	 2.086E+01	 8.849E-01	 5.329E+01	 5.327E+01	 1.199E+03	 1.879E+00	-2.380E+00	-4.415E+00	 1.722E+01	 5.134E+00	 2.282E-01	 2.865E+01	 2.864E+01	 3.062E+01	 1.429E+00	-6.479E+01	-1.104E-01	-2.040E+01
    7.6800	 1.200E+01	 0.000E+00	 0.000E+00	 1.441E-01	-1.716E-02	 1.151E-01	 1.181E+00	 2.251E+01	 1.437E+00	 5.339E+01	 5.337E+01	 1.201E+03	 1.144E+00	-1.988E+00	-2.530E+00	 1.539E+01	 9.022E+00	 4.010E-01	 5.044E+01	 5.042E+01	 2.984E+01	 2.567E+00	-6.645E+01	 6.659E-02	 1.852E+00
    7.7200	 1.200E+01	 0.000E+00	 0.000E+00	 1.325E-01	-1.830E-02	 1.233E-01	 1.034E+00	 2.289E+01	 1.832E+00	 5.349E+01	 5.347E+01	 1.203E+03	 1.008E+00	-1.569E+00	-5.831E-01	 1.456E+01	 1.350E+01	 6.001E-01	 7.563E+01	 7.560E+01	 2.923E+01	 3.995E+00	-6.856E+01	 2.481E-01	 2.457E+01
    7.7600	 1.200E+01	 0.000E+00	 0.000E+00	 1.329E-01	-2.121E-02	 1.452E-01	 1.022E+00	 2.404E+01	 2.303E+00	 5.360E+01	 5.357E+01	 1.205E+03	 1.219E+00	-1.086E+00	 1.622E+00	 1.484E+01	 1.865E+01	 8.290E-01	 1.047E+02	 1.046E+02	 2.877E+01	 5.505E+00	-7.081E+01	 4.454E-01	 4.916E+01
    7.8000	 1.200E+01	 0.000E+00	 0.000E+00	 1.435E-01	-2.541E-02	 1.776E-01	 1.142E+00	 2.615E+01	 2.849E+00	 5.371E+01	 5.368E+01	 1.208E+03	 1.620E+00	-4.980E-01	 3.875E+00	 1.597E+01	 2.352E+01	 1.045E+00	 1.323E+02	 1.322E+02	 2.827E+01	 6.844E+00	-7.285E+01	 6.556E-01	 7.523E+01
    7.8400	 1.200E+01	 0.000E+00	 0.000E+00	 1.582E-01	-3.008E-02	 2.129E-01	 1.288E+00	 2.773E+01	 3.264E+00	 5.381E+01	 5.379E+01	 1.210E+03	 2.247E+00	 1.422E-01	 5.964E+00	 1.755E+01	 2.771E+01	 1.232E+00	 1.562E+02	 1.561E+02	 2.776E+01	 8.002E+00	-7.439E+01	 8.626E-01	 1.008E+02
    7.8800	 1.200E+01	 0.000E+00	 0.000E+00	 1.733E-01	-3.447E-02	 2.458E-01	 1.432E+00	 2.952E+01	 3.424E+00	 5.391E+01	 5.389E+01	 1.213E+03	 2.937E+00	 7.444E-01	 7.729E+00	 1.914E+01	 3.123E+01	 1.388E+00	 1.763E+02	 1.763E+02	 2.744E+01	 8.949E+00	-7.518E+01	 1.056E+00	 1.245E+02
    7.9200	 1.200E+01	 0.000E+00	 0.000E+00	 1.868E-01	-3.810E-02	 2.732E-01	 1.570E+00	 3.182E+01	 3.396E+00	 5.399E+01	 5.398E+01	 1.214E+03	 3.577E+00	 1.299E+00	 9.091E+00	 2.052E+01	 3.359E+01	 1.493E+00	 1.899E+02	 1.899E+02	 2.719E+01	 9.421E+00	-7.510E+01	 1.223E+00	 1.449E+02
    7.9600	 1.200E+01	 0.000E+00	 0.000E+00	 1.956E-01	-4.065E-02	 2.924E-01	 1.656E+00	 3.407E+01	 3.199E+00	 5.405E+01	 5.404E+01	 1.216E+03	 4.141E+00	 1.759E+00	 1.005E+01	 2.145E+01	 3.483E+01	 1.548E+00	 1.971E+02	 1.971E+02	 2.687E+01	 9.265E+00	-7.424E+01	 1.352E+00	 1.607E+02
    8.0000	 1.200E+01	 0.000E+00	 0.000E+00	 1.977E-01	-4.166E-02	 2.998E-01	 1.670E+00	 3.607E+01	 2.725E+00	 5.409E+01	 5.409E+01	 1.217E+03	 4.543E+00	 2.016E+00	 1.044E+01	 2.173E+01	 3.525E+01	 1.567E+00	 1.997E+02	 1.997E+02	 2.661E+01	 8.539E+00	-7.278E+01	 1.441E+00	 1.715E+02
    8.0400	 1.200E+01	 0.000E+00	 0.000E+00	 1.934E-01	-4.110E-02	 2.954E-01	 1.620E+00	 3.799E+01	 1.972E+00	 5.412E+01	 5.412E+01	 1.218E+03	 4.759E+00	 2.047E+00	 1.029E+01	 2.133E+01	 3.506E+01	 1.558E+00	 1.987E+02	 1.987E+02	 2.650E+01	 7.274E+00	-7.101E+01	 1.494E+00	 1.779E+02
    8.0800	 1.200E+01	 0.000E+00	 0.000E+00	 1.852E-01	-3.956E-02	 2.837E-01	 1.530E+00	 3.937E+01	 1.170E+00	 5.413E+01	 5.413E+01	 1.218E+03	 4.865E+00	 1.868E+00	 9.812E+00	 2.061E+01	 3.459E+01	 1.537E+00	 1.960E+02	 1.961E+02	 2.645E+01	 5.488E+00	-6.932E+01	 1.516E+00	 1.806E+02
    8.1200	 1.200E+01	 0.000E+00	 0.000E+00	 1.773E-01	-3.765E-02	 2.693E-01	 1.450E+00	 4.041E+01	 4.880E-01	 5.413E+01	 5.413E+01	 1.218E+03	 4.948E+00	 1.477E+00	 9.107E+00	 1.989E+01	 3.421E+01	 1.521E+00	 1.939E+02	 1.939E+02	 2.653E+01	 3.343E+00	-6.800E+01	 1.521E+00	 1.812E+02
    8.1600	 1.200E+01	 0.000E+00	 0.000E+00	 1.720E-01	-3.556E-02	 2.540E-01	 1.411E+00	 4.122E+01	-6.062E-02	 5.413E+01	 5.413E+01	 1.218E+03	 5.021E+00	 8.686E-01	 8.081E+00	 1.934E+01	 3.402E+01	 1.512E+00	 1.928E+02	 1.928E+02	 2.682E+01	 1.082E+00	-6.722E+01	 1.519E+00	 1.809E+02
    8.2000	 1.200E+01	 0.000E+00	 0.000E+00	 1.690E-01	-3.335E-02	 2.378E-01	 1.401E+00	 4.157E+01	-4.579E-01	 5.413E+01	 5.413E+01	 1.218E+03	 5.096E+00	 7.637E-02	 6.789E+00	 1.897E+01	 3.402E+01	 1.512E+00	 1.928E+02	 1.928E+02	 2.729E+01	-1.101E+00	-6.704E+01	 1.516E+00	 1.806E+02
    8.2400	 1.200E+01	 0.000E+00	 0.000E+00	 1.672E-01	-3.108E-02	 2.210E-01	 1.401E+00	 4.147E+01	-6.849E-01	 5.413E+01	 5.413E+01	 1.218E+03	 5.170E+00	-8.630E-01	 5.335E+00	 1.870E+01	 3.434E+01	 1.526E+00	 1.947E+02	 1.946E+02	 2.785E+01	-3.059E+00	-6.745E+01	 1.517E+00	 1.808E+02
    8.2800	 1.200E+01	 0.000E+00	 0.000E+00	 1.662E-01	-2.876E-02	 2.038E-01	 1.409E+00	 4.110E+01	-7.501E-01	 5.414E+01	 5.413E+01	 1.218E+03	 5.205E+00	-1.909E+00	 3.781E+00	 1.850E+01	 3.491E+01	 1.552E+00	 1.979E+02	 1.979E+02	 2.847E+01	-4.657E+00	-6.834E+01	 1.527E+00	 1.820E+02
    8.3200	 1.200E+01	 0.000E+00	 0.000E+00	 1.661E-01	-2.646E-02	 1.869E-01	 1.428E+00	 4.046E+01	-6.957E-01	 5.415E+01	 5.414E+01	 1.218E+03	 5.201E+00	-2.997E+00	 2.177E+00	 1.841E+01	 3.558E+01	 1.581E+00	 2.017E+02	 2.017E+02	 2.911E+01	-5.761E+00	-6.953E+01	 1.545E+00	 1.841E+02
    8.3600	 1.200E+01	 0.000E+00	 0.000E+00	 1.667E-01	-2.437E-02	 1.716E-01	 1.458E+00	 3.986E+01	-4.731E-01	 5.416E+01	 5.415E+01	 1.218E+03	 5.171E+00	-4.049E+00	 6.900E-01	 1.833E+01	 3.629E+01	 1.613E+00	 2.058E+02	 2.058E+02	 2.971E+01	-6.285E+00	-7.080E+01	 1.569E+00	 1.870E+02
    8.4000	 1.200E+01	 0.000E+00	 0.000E+00	 1.673E-01	-2.252E-02	 1.580E-01	 1.483E+00	 3.949E+01	-1.233E-01	 5.417E+01	 5.417E+01	 1.219E+03	 5.109E+00	-5.005E+00	-6.298E-01	 1.827E+01	 3.700E+01	 1.644E+00	 2.099E+02	 2.099E+02	 3.024E+01	-6.229E+00	-7.190E+01	 1.596E+00	 1.903E+02
    8.4400	 1.200E+01	 0.000E+00	 0.000E+00	 1.671E-01	-2.098E-02	 1.462E-01	 1.483E+00	 3.874E+01	 3.161E-01	 5.419E+01	 5.418E+01	 1.219E+03	 5.053E+00	-5.822E+00	-1.720E+00	 1.822E+01	 3.767E+01	 1.674E+00	 2.138E+02	 2.137E+02	 3.077E+01	-5.657E+00	-7.262E+01	 1.624E+00	 1.937E+02
    8.4800	 1.200E+01	 0.000E+00	 0.000E+00	 1.674E-01	-1.985E-02	 1.372E-01	 1.480E+00	 3.786E+01	 7.812E-01	 5.420E+01	 5.420E+01	 1.219E+03	 4.999E+00	-6.473E+00	-2.597E+00	 1.826E+01	 3.828E+01	 1.701E+00	 2.173E+02	 2.173E+02	 3.128E+01	-4.678E+00	-7.292E+01	 1.653E+00	 1.972E+02
    8.5200	 1.200E+01	 0.000E+00	 0.000E+00	 1.697E-01	-1.931E-02	 1.327E-01	 1.497E+00	 3.699E+01	 1.274E+00	 5.421E+01	 5.421E+01	 1.220E+03	 4.957E+00	-6.912E+00	-3.211E+00	 1.848E+01	 3.869E+01	 1.719E+00	 2.196E+02	 2.196E+02	 3.170E+01	-3.398E+00	-7.276E+01	 1.679E+00	 2.004E+02
    8.5600	 1.200E+01	 0.000E+00	 0.000E+00	 1.740E-01	-1.949E-02	 1.337E-01	 1.536E+00	 3.611E+01	 1.797E+00	 5.422E+01	 5.422E+01	 1.220E+03	 4.949E+00	-7.106E+00	-3.480E+00	 1.890E+01	 3.887E+01	 1.728E+00	 2.207E+02	 2.207E+02	 3.202E+01	-1.910E+00	-7.217E+01	 1.699E+00	 2.028E+02
    8.6000	 1.200E+01	 0.000E+00	 0.000E+00	 1.790E-01	-2.022E-02	 1.389E-01	 1.581E+00	 3.529E+01	 2.280E+00	 5.423E+01	 5.423E+01	 1.220E+03	 4.932E+00	-7.067E+00	-3.413E+00	 1.938E+01	 3.886E+01	 1.727E+00	 2.207E+02	 2.207E+02	 3.221E+01	-3.567E-01	-7.128E+01	 1.712E+00	 2.043E+02
    8.6400	 1.200E+01	 0.000E+00	 0.000E+00	 1.831E-01	-2.115E-02	 1.456E-01	 1.615E+00	 3.455E+01	 2.596E+00	 5.423E+01	 5.423E+01	 1.220E+03	 4.878E+00	-6.845E+00	-3.122E+00	 1.976E+01	 3.868E+01	 1.719E+00	 2.196E+02	 2.196E+02	 3.223E+01	 1.116E+00	-7.033E+01	 1.717E+00	 2.050E+02
    8.6800	 1.200E+01	 0.000E+00	 0.000E+00	 1.852E-01	-2.215E-02	 1.529E-01	 1.628E+00	 3.395E+01	 2.731E+00	 5.423E+01	 5.423E+01	 1.220E+03	 4.771E+00	-6.454E+00	-2.598E+00	 1.996E+01	 3.835E+01	 1.705E+00	 2.178E+02	 2.178E+02	 3.206E+01	 2.442E+00	-6.949E+01	 1.715E+00	 2.047E+02
    8.7200	 1.200E+01	 0.000E+00	 0.000E+00	 1.854E-01	-2.328E-02	 1.612E-01	 1.619E+00	 3.353E+01	 2.752E+00	 5.422E+01	 5.422E+01	 1.220E+03	 4.627E+00	-5.898E+00	-1.784E+00	 1.999E+01	 3.798E+01	 1.688E+00	 2.156E+02	 2.156E+02	 3.170E+01	 3.597E+00	-6.888E+01	 1.706E+00	 2.036E+02
    8.7600	 1.200E+01	 0.000E+00	 0.000E+00	 1.843E-01	-2.454E-02	 1.706E-01	 1.597E+00	 3.336E+01	 2.679E+00	 5.422E+01	 5.422E+01	 1.220E+03	 4.471E+00	-5.208E+00	-7.466E-01	 1.990E+01	 3.760E+01	 1.671E+00	 2.135E+02	 2.135E+02	 3.120E+01	 4.529E+00	-6.859E+01	 1.694E+00	 2.022E+02
    8.8000	 1.200E+01	 0.000E+00	 0.000E+00	 1.826E-01	-2.598E-02	 1.814E-01	 1.570E+00	 3.336E+01	 2.549E+00	 5.421E+01	 5.421E+01	 1.220E+03	 4.324E+00	-4.406E+00	 4.786E-01	 1.977E+01	 3.726E+01	 1.656E+00	 2.115E+02	 2.115E+02	 3.059E+01	 5.208E+00	-6.866E+01	 1.680E+00	 2.005E+02
    8.8400	 1.200E+01	 0.000E+00	 0.000E+00	 1.811E-01	-2.770E-02	 1.944E-01	 1.545E+00	 3.345E+01	 2.459E+00	 5.420E+01	 5.420E+01	 1.220E+03	 4.209E+00	-3.504E+00	 1.897E+00	 1.968E+01	 3.702E+01	 1.645E+00	 2.101E+02	 2.101E+02	 2.994E+01	 5.641E+00	-6.903E+01	 1.666E+00	 1.988E+02
    8.8800	 1.200E+01	 0.000E+00	 0.000E+00	 1.803E-01	-2.972E-02	 2.096E-01	 1.526E+00	 3.361E+01	 2.445E+00	 5.420E+01	 5.420E+01	 1.219E+03	 4.128E+00	-2.533E+00	 3.474E+00	 1.967E+01	 3.692E+01	 1.641E+00	 2.095E+02	 2.095E+02	 2.928E+01	 5.829E+00	-6.962E+01	 1.655E+00	 1.975E+02
    8.9200	 1.200E+01	 0.000E+00	 0.000E+00	 1.804E-01	-3.195E-02	 2.265E-01	 1.519E+00	 3.385E+01	 2.520E+00	 5.419E+01	 5.419E+01	 1.219E+03	 4.081E+00	-1.535E+00	 5.120E+00	 1.975E+01	 3.693E+01	 1.641E+00	 2.096E+02	 2.096E+02	 2.866E+01	 5.759E+00	-7.032E+01	 1.648E+00	 1.966E+02
    8.9600	 1.200E+01	 0.000E+00	 0.000E+00	 1.812E-01	-3.426E-02	 2.441E-01	 1.519E+00	 3.411E+01	 2.687E+00	 5.419E+01	 5.419E+01	 1.219E+03	 4.058E+00	-5.588E-01	 6.759E+00	 1.990E+01	 3.703E+01	 1.646E+00	 2.102E+02	 2.102E+02	 2.811E+01	 5.440E+00	-7.098E+01	 1.645E+00	 1.963E+02