
FAST Summary File

Predictions were generated on 01-Jul-2014 at 22:34:45 using FAST (v8.08.00c-bjj, 30-June-2014), compiled for 32-bit systems using single precision
  compiled with
    NWTC Subroutine Library (v2.03.03b-bjj, 30-June-2014)
    ElastoDyn (v1.01.06b-bjj, 30-June-2014)
    AeroDyn (v14.02.01c-bjj, 30-June-2014)
    InflowWind (v2.00.01b-bjj, 30-June-2014)
    ServoDyn (v1.01.02a-bjj, 30-June-2014)
    HydroDyn (v2.01.01c-gjh, 30-Jun-2014)
    SubDyn (v1.01.00a-rrd, 30-Jun-2014)
    MAP (unknown version, unknown date) [not called]
    FEAMooring (unknown version, unknown date) [not called]
    IceFloe (unknown version, unknown date) [not called]
    IceDyn (unknown version, unknown date) [not called]


Modeling a fixed-bottom offshore turbine
Description from the FAST input file: 
  FAST Certification Test #19: NREL 5.0 MW Baseline Wind Turbine with OC3 Monopile RF Configuration, for use in offshore analysis

Interpolation order for input/output time histories: 2 (quadratic)
Number of correction iterations:  0
Number of rows in Jacobian matrix used for coupling ElastoDyn, SubDyn, and HydroDyn:    498


   Requested Time Steps  
  -------------------------------------------------
  Component          Time Step (s)    Subcycles (-)
  -----------------  ---------------  -------------
  FAST (glue code)    5.000E-03
  ElastoDyn           5.000E-03              1
  AeroDyn             5.000E-03              1
  ServoDyn            5.000E-03              1
  HydroDyn            5.000E-03              1
  SubDyn              5.000E-03              1
  FAST output files   5.000E-02             10^-1


   Requested Channels in FAST Output File(s)  
  --------------------------------------------
  Number  Name        Units       Generated by
  ------  ----------  ----------  ------------
       1  Time        (s)         FAST
       2  WindVxi     (m/s)       InflowWind
       3  WindVyi     (m/s)       InflowWind
       4  WindVzi     (m/s)       InflowWind
       5  OoPDefl1    (m)         ElastoDyn
       6  IPDefl1     (m)         ElastoDyn
       7  TwstDefl1   (deg)       ElastoDyn
       8  BldPitch1   (deg)       ElastoDyn
       9  Azimuth     (deg)       ElastoDyn
      10  RotSpeed    (rpm)       ElastoDyn
      11  GenSpeed    (rpm)       ElastoDyn
      12  TwHt1TPxi   (m)         ElastoDyn
      13  TwHt1TPyi   (m)         ElastoDyn
      14  TTDspTwst   (deg)       ElastoDyn
      15  PtfmSurge   (m)         ElastoDyn
      16  PtfmSway    (m)         ElastoDyn
      17  PtfmRoll    (deg)       ElastoDyn
      18  PtfmPitch   (deg)       ElastoDyn
      19  Spn2MLxb1   (kN·m)      ElastoDyn
      20  Spn2MLyb1   (kN·m)      ElastoDyn
      21  RootFxc1    (kN)        ElastoDyn
      22  RootFyc1    (kN)        ElastoDyn
      23  RootFzc1    (kN)        ElastoDyn
      24  RootMxc1    (kN·m)      ElastoDyn
      25  RootMyc1    (kN·m)      ElastoDyn
      26  RootMzc1    (kN·m)      ElastoDyn
      27  RotTorq     (kN·m)      ElastoDyn
      28  LSSGagMya   (kN·m)      ElastoDyn
      29  LSSGagMza   (kN·m)      ElastoDyn
      30  YawBrFxp    (kN)        ElastoDyn
      31  YawBrFyp    (kN)        ElastoDyn
      32  YawBrFzp    (kN)        ElastoDyn
      33  YawBrMxp    (kN·m)      ElastoDyn
      34  YawBrMyp    (kN·m)      ElastoDyn
      35  YawBrMzp    (kN·m)      ElastoDyn
      36  GenPwr      (kW)        ServoDyn
      37  GenTq       (kN·m)      ServoDyn
      38  Wave1Elev   (m)         HydroDyn
      39  M2N1MKxe    (N*m)       SubDyn
      40  M2N1MKye    (N*m)       SubDyn
      41  M1N1MKxe    (N*m)       SubDyn
      42  M1N1MKye    (N*m)       SubDyn
      43  -ReactFXss  (N)         SubDyn
      44  -ReactFYss  (N)         SubDyn
      45  -ReactFZss  (N)         SubDyn
      46  -ReactMXss  (Nm)        SubDyn
      47  -ReactMYss  (Nm)        SubDyn
      48  -ReactMZss  (Nm)        SubDyn
