
Predictions were generated on 26-Sep-2014 at 19:49:24 using FAST (v8.08.01a-bjj, 15-Aug-2014), compiled for 32-bit systems using single precision
 linked with  NWTC Subroutine Library (v2.04.00a-bjj, 30-Sep-2014); ElastoDyn (v1.01.07a-bjj, 30-Sep-2014); InflowWind (v2.00.01c-bjj, 30-Sep-2014); AeroDyn (v14.03.00a-bjj, 30-Sep-2014); ServoDyn (v1.01.02a-bjj, 30-June-2014)

Description from the FAST input file: FAST Certification Test #15: SWRT 3-bladed upwind turbine with many DOFs, variable speed control, free yaw, tail-furl, EOG01 event

Time      	WindVxi   	WindVyi   	WindVzi   	TipClrnc1 	TipClrnc2 	TipClrnc3 	RotSpeed  	TailFurlP 	TailFurlV 	TailFurlA 	NacYawP   	RotThrust 	TFrlBrM   
(s)       	(m/s)     	(m/s)     	(m/s)     	(m)       	(m)       	(m)       	(rpm)     	(deg)     	(deg/s)   	(deg/s^2) 	(deg)     	(kN)      	(kN·m)    
    5.0000	 1.188E+01	 0.000E+00	 1.670E+00	 2.331E+00	 2.885E+00	 3.485E+00	 2.476E+02	 0.000E+00	 0.000E+00	 0.000E+00	-6.831E+00	 1.355E+00	 0.000E+00
    5.0080	 1.188E+01	 0.000E+00	 1.670E+00	 1.957E+00	 2.998E+00	 3.457E+00	 2.477E+02	 0.000E+00	 0.000E+00	 0.000E+00	-6.844E+00	 1.355E+00	 0.000E+00
    5.0160	 1.188E+01	 0.000E+00	 1.670E+00	 1.560E+00	 3.099E+00	 3.411E+00	 2.477E+02	 0.000E+00	 0.000E+00	 0.000E+00	-6.856E+00	 1.356E+00	 0.000E+00
    5.0240	 1.188E+01	 0.000E+00	 1.670E+00	 1.223E+00	 3.194E+00	 3.349E+00	 2.477E+02	 0.000E+00	 0.000E+00	 0.000E+00	-6.868E+00	 1.357E+00	 0.000E+00
    5.0320	 1.188E+01	 0.000E+00	 1.670E+00	 1.085E+00	 3.281E+00	 3.273E+00	 2.477E+02	 0.000E+00	 0.000E+00	 0.000E+00	-6.880E+00	 1.358E+00	 0.000E+00
    5.0400	 1.188E+01	 0.000E+00	 1.670E+00	 1.238E+00	 3.355E+00	 3.186E+00	 2.477E+02	 0.000E+00	 0.000E+00	 0.000E+00	-6.892E+00	 1.358E+00	 0.000E+00
    5.0480	 1.188E+01	 0.000E+00	 1.670E+00	 1.583E+00	 3.416E+00	 3.089E+00	 2.478E+02	 0.000E+00	 0.000E+00	 0.000E+00	-6.904E+00	 1.358E+00	 0.000E+00
    5.0560	 1.188E+01	 0.000E+00	 1.670E+00	 1.980E+00	 3.460E+00	 2.988E+00	 2.478E+02	 0.000E+00	 0.000E+00	 0.000E+00	-6.916E+00	 1.357E+00	 0.000E+00
    5.0640	 1.188E+01	 0.000E+00	 1.670E+00	 2.353E+00	 3.487E+00	 2.873E+00	 2.478E+02	 0.000E+00	 0.000E+00	 0.000E+00	-6.928E+00	 1.356E+00	 0.000E+00
    5.0720	 1.188E+01	 0.000E+00	 1.670E+00	 2.658E+00	 3.496E+00	 2.665E+00	 2.478E+02	 0.000E+00	 0.000E+00	 0.000E+00	-6.940E+00	 1.355E+00	 0.000E+00
    5.0800	 1.188E+01	 0.000E+00	 1.670E+00	 2.871E+00	 3.487E+00	 2.363E+00	 2.478E+02	 0.000E+00	 0.000E+00	 0.000E+00	-6.953E+00	 1.355E+00	 0.000E+00
    5.0880	 1.188E+01	 0.000E+00	 1.670E+00	 2.989E+00	 3.460E+00	 1.992E+00	 2.479E+02	 0.000E+00	 0.000E+00	 0.000E+00	-6.965E+00	 1.355E+00	 0.000E+00
    5.0960	 1.188E+01	 0.000E+00	 1.670E+00	 3.090E+00	 3.415E+00	 1.595E+00	 2.479E+02	 0.000E+00	 0.000E+00	 0.000E+00	-6.977E+00	 1.356E+00	 0.000E+00
    5.1040	 1.188E+01	 0.000E+00	 1.670E+00	 3.186E+00	 3.355E+00	 1.247E+00	 2.479E+02	 0.000E+00	 0.000E+00	 0.000E+00	-6.988E+00	 1.357E+00	 0.000E+00
    5.1120	 1.188E+01	 0.000E+00	 1.670E+00	 3.273E+00	 3.280E+00	 1.085E+00	 2.479E+02	 0.000E+00	 0.000E+00	 0.000E+00	-7.000E+00	 1.358E+00	 0.000E+00
    5.1200	 1.188E+01	 0.000E+00	 1.670E+00	 3.349E+00	 3.194E+00	 1.215E+00	 2.479E+02	 0.000E+00	 0.000E+00	 0.000E+00	-7.012E+00	 1.358E+00	 0.000E+00
    5.1280	 1.188E+01	 0.000E+00	 1.670E+00	 3.411E+00	 3.098E+00	 1.549E+00	 2.480E+02	 0.000E+00	 0.000E+00	 0.000E+00	-7.023E+00	 1.358E+00	 0.000E+00
    5.1360	 1.188E+01	 0.000E+00	 1.670E+00	 3.457E+00	 2.997E+00	 1.946E+00	 2.480E+02	 0.000E+00	 0.000E+00	 0.000E+00	-7.035E+00	 1.357E+00	 0.000E+00
    5.1440	 1.188E+01	 0.000E+00	 1.670E+00	 3.486E+00	 2.886E+00	 2.323E+00	 2.480E+02	 0.000E+00	 0.000E+00	 0.000E+00	-7.047E+00	 1.356E+00	 0.000E+00
    5.1520	 1.188E+01	 0.000E+00	 1.670E+00	 3.496E+00	 2.686E+00	 2.636E+00	 2.480E+02	 0.000E+00	 0.000E+00	 0.000E+00	-7.059E+00	 1.355E+00	 0.000E+00
    5.1600	 1.188E+01	 0.000E+00	 1.670E+00	 3.489E+00	 2.391E+00	 2.857E+00	 2.480E+02	 0.000E+00	 0.000E+00	 0.000E+00	-7.070E+00	 1.355E+00	 0.000E+00
    5.1680	 1.188E+01	 0.000E+00	 1.670E+00	 3.463E+00	 2.024E+00	 2.980E+00	 2.481E+02	 0.000E+00	 0.000E+00	 0.000E+00	-7.082E+00	 1.355E+00	 0.000E+00
    5.1760	 1.188E+01	 0.000E+00	 1.670E+00	 3.420E+00	 1.626E+00	 3.082E+00	 2.481E+02	 0.000E+00	 0.000E+00	 0.000E+00	-7.094E+00	 1.356E+00	 0.000E+00
    5.1840	 1.188E+01	 0.000E+00	 1.670E+00	 3.360E+00	 1.270E+00	 3.179E+00	 2.481E+02	 0.000E+00	 0.000E+00	 0.000E+00	-7.105E+00	 1.357E+00	 0.000E+00
    5.1920	 1.188E+01	 0.000E+00	 1.670E+00	 3.287E+00	 1.087E+00	 3.267E+00	 2.481E+02	 0.000E+00	 0.000E+00	 0.000E+00	-7.117E+00	 1.358E+00	 0.000E+00
    5.2000	 1.188E+01	 0.000E+00	 1.670E+00	 3.201E+00	 1.195E+00	 3.344E+00	 2.481E+02	 0.000E+00	 0.000E+00	 0.000E+00	-7.128E+00	 1.358E+00	 0.000E+00
    5.2080	 1.188E+01	 0.000E+00	 1.670E+00	 3.106E+00	 1.519E+00	 3.407E+00	 2.482E+02	 0.000E+00	 0.000E+00	 0.000E+00	-7.139E+00	 1.358E+00	 0.000E+00
    5.2160	 1.188E+01	 0.000E+00	 1.670E+00	 3.005E+00	 1.915E+00	 3.454E+00	 2.482E+02	 0.000E+00	 0.000E+00	 0.000E+00	-7.150E+00	 1.358E+00	 0.000E+00
    5.2240	 1.188E+01	 0.000E+00	 1.670E+00	 2.897E+00	 2.296E+00	 3.484E+00	 2.482E+02	 0.000E+00	 0.000E+00	 0.000E+00	-7.162E+00	 1.356E+00	 0.000E+00
    5.2320	 1.188E+01	 0.000E+00	 1.670E+00	 2.705E+00	 2.615E+00	 3.496E+00	 2.482E+02	 0.000E+00	 0.000E+00	 0.000E+00	-7.173E+00	 1.355E+00	 0.000E+00
    5.2400	 1.188E+01	 0.000E+00	 1.670E+00	 2.416E+00	 2.844E+00	 3.490E+00	 2.482E+02	 0.000E+00	 0.000E+00	 0.000E+00	-7.185E+00	 1.354E+00	 0.000E+00
    5.2480	 1.188E+01	 0.000E+00	 1.670E+00	 2.053E+00	 2.973E+00	 3.466E+00	 2.483E+02	 0.000E+00	 0.000E+00	 0.000E+00	-7.196E+00	 1.355E+00	 0.000E+00
    5.2560	 1.188E+01	 0.000E+00	 1.670E+00	 1.655E+00	 3.074E+00	 3.424E+00	 2.483E+02	 0.000E+00	 0.000E+00	 0.000E+00	-7.207E+00	 1.356E+00	 0.000E+00
    5.2640	 1.188E+01	 0.000E+00	 1.670E+00	 1.292E+00	 3.172E+00	 3.365E+00	 2.483E+02	 0.000E+00	 0.000E+00	 0.000E+00	-7.218E+00	 1.357E+00	 0.000E+00
    5.2720	 1.188E+01	 0.000E+00	 1.670E+00	 1.091E+00	 3.261E+00	 3.292E+00	 2.483E+02	 0.000E+00	 0.000E+00	 0.000E+00	-7.229E+00	 1.358E+00	 0.000E+00
    5.2800	 1.188E+01	 0.000E+00	 1.670E+00	 1.178E+00	 3.339E+00	 3.207E+00	 2.483E+02	 0.000E+00	 0.000E+00	 0.000E+00	-7.240E+00	 1.358E+00	 0.000E+00
    5.2880	 1.188E+01	 0.000E+00	 1.670E+00	 1.493E+00	 3.403E+00	 3.113E+00	 2.484E+02	 0.000E+00	 0.000E+00	 0.000E+00	-7.251E+00	 1.358E+00	 0.000E+00
    5.2960	 1.188E+01	 0.000E+00	 1.670E+00	 1.888E+00	 3.451E+00	 3.012E+00	 2.484E+02	 0.000E+00	 0.000E+00	 0.000E+00	-7.262E+00	 1.358E+00	 0.000E+00
    5.3040	 1.188E+01	 0.000E+00	 1.670E+00	 2.272E+00	 3.483E+00	 2.906E+00	 2.484E+02	 0.000E+00	 0.000E+00	 0.000E+00	-7.273E+00	 1.356E+00	 0.000E+00
    5.3120	 1.188E+01	 0.000E+00	 1.670E+00	 2.596E+00	 3.496E+00	 2.721E+00	 2.484E+02	 0.000E+00	 0.000E+00	 0.000E+00	-7.284E+00	 1.355E+00	 0.000E+00
    5.3200	 1.188E+01	 0.000E+00	 1.670E+00	 2.832E+00	 3.491E+00	 2.438E+00	 2.484E+02	 0.000E+00	 0.000E+00	 0.000E+00	-7.295E+00	 1.354E+00	 0.000E+00
    5.3280	 1.188E+01	 0.000E+00	 1.670E+00	 2.966E+00	 3.468E+00	 2.079E+00	 2.484E+02	 0.000E+00	 0.000E+00	 0.000E+00	-7.306E+00	 1.355E+00	 0.000E+00
    5.3360	 1.188E+01	 0.000E+00	 1.670E+00	 3.068E+00	 3.427E+00	 1.681E+00	 2.485E+02	 0.000E+00	 0.000E+00	 0.000E+00	-7.317E+00	 1.356E+00	 0.000E+00
    5.3440	 1.188E+01	 0.000E+00	 1.670E+00	 3.166E+00	 3.370E+00	 1.312E+00	 2.485E+02	 0.000E+00	 0.000E+00	 0.000E+00	-7.328E+00	 1.357E+00	 0.000E+00
    5.3520	 1.188E+01	 0.000E+00	 1.670E+00	 3.256E+00	 3.298E+00	 1.096E+00	 2.485E+02	 0.000E+00	 0.000E+00	 0.000E+00	-7.339E+00	 1.358E+00	 0.000E+00
    5.3600	 1.188E+01	 0.000E+00	 1.670E+00	 3.334E+00	 3.213E+00	 1.164E+00	 2.485E+02	 0.000E+00	 0.000E+00	 0.000E+00	-7.349E+00	 1.358E+00	 0.000E+00
    5.3680	 1.188E+01	 0.000E+00	 1.670E+00	 3.399E+00	 3.119E+00	 1.469E+00	 2.485E+02	 0.000E+00	 0.000E+00	 0.000E+00	-7.360E+00	 1.358E+00	 0.000E+00
    5.3760	 1.188E+01	 0.000E+00	 1.670E+00	 3.449E+00	 3.018E+00	 1.863E+00	 2.486E+02	 0.000E+00	 0.000E+00	 0.000E+00	-7.371E+00	 1.358E+00	 0.000E+00
    5.3840	 1.188E+01	 0.000E+00	 1.670E+00	 3.481E+00	 2.914E+00	 2.250E+00	 2.486E+02	 0.000E+00	 0.000E+00	 0.000E+00	-7.381E+00	 1.356E+00	 0.000E+00
    5.3920	 1.188E+01	 0.000E+00	 1.670E+00	 3.496E+00	 2.735E+00	 2.579E+00	 2.486E+02	 0.000E+00	 0.000E+00	 0.000E+00	-7.392E+00	 1.355E+00	 0.000E+00
    5.4000	 1.188E+01	 0.000E+00	 1.670E+00	 3.492E+00	 2.457E+00	 2.821E+00	 2.486E+02	 0.000E+00	 0.000E+00	 0.000E+00	-7.403E+00	 1.354E+00	 0.000E+00
    5.4080	 1.188E+01	 0.000E+00	 1.670E+00	 3.470E+00	 2.102E+00	 2.960E+00	 2.486E+02	 0.000E+00	 0.000E+00	 0.000E+00	-7.413E+00	 1.355E+00	 0.000E+00
    5.4160	 1.188E+01	 0.000E+00	 1.670E+00	 3.430E+00	 1.705E+00	 3.062E+00	 2.486E+02	 0.000E+00	 0.000E+00	 0.000E+00	-7.424E+00	 1.356E+00	 0.000E+00
    5.4240	 1.188E+01	 0.000E+00	 1.670E+00	 3.373E+00	 1.331E+00	 3.160E+00	 2.487E+02	 0.000E+00	 0.000E+00	 0.000E+00	-7.435E+00	 1.357E+00	 0.000E+00
    5.4320	 1.188E+01	 0.000E+00	 1.670E+00	 3.302E+00	 1.101E+00	 3.251E+00	 2.487E+02	 0.000E+00	 0.000E+00	 0.000E+00	-7.445E+00	 1.358E+00	 0.000E+00
    5.4400	 1.188E+01	 0.000E+00	 1.670E+00	 3.218E+00	 1.153E+00	 3.330E+00	 2.487E+02	 0.000E+00	 0.000E+00	 0.000E+00	-7.455E+00	 1.358E+00	 0.000E+00
    5.4480	 1.188E+01	 0.000E+00	 1.670E+00	 3.124E+00	 1.449E+00	 3.396E+00	 2.487E+02	 0.000E+00	 0.000E+00	 0.000E+00	-7.466E+00	 1.358E+00	 0.000E+00
    5.4560	 1.188E+01	 0.000E+00	 1.670E+00	 3.024E+00	 1.841E+00	 3.447E+00	 2.487E+02	 0.000E+00	 0.000E+00	 0.000E+00	-7.476E+00	 1.358E+00	 0.000E+00
    5.4640	 1.188E+01	 0.000E+00	 1.670E+00	 2.920E+00	 2.230E+00	 3.480E+00	 2.488E+02	 0.000E+00	 0.000E+00	 0.000E+00	-7.486E+00	 1.356E+00	 0.000E+00
    5.4720	 1.188E+01	 0.000E+00	 1.670E+00	 2.748E+00	 2.563E+00	 3.496E+00	 2.488E+02	 0.000E+00	 0.000E+00	 0.000E+00	-7.496E+00	 1.355E+00	 0.000E+00
    5.4800	 1.188E+01	 0.000E+00	 1.670E+00	 2.474E+00	 2.811E+00	 3.493E+00	 2.488E+02	 0.000E+00	 0.000E+00	 0.000E+00	-7.507E+00	 1.354E+00	 0.000E+00
    5.4880	 1.188E+01	 0.000E+00	 1.670E+00	 2.121E+00	 2.954E+00	 3.471E+00	 2.488E+02	 0.000E+00	 0.000E+00	 0.000E+00	-7.517E+00	 1.355E+00	 0.000E+00
    5.4960	 1.188E+01	 0.000E+00	 1.670E+00	 1.725E+00	 3.057E+00	 3.432E+00	 2.488E+02	 0.000E+00	 0.000E+00	 0.000E+00	-7.528E+00	 1.356E+00	 0.000E+00
    5.5040	 1.188E+01	 0.000E+00	 1.670E+00	 1.347E+00	 3.156E+00	 3.377E+00	 2.488E+02	 0.000E+00	 0.000E+00	 0.000E+00	-7.538E+00	 1.357E+00	 0.000E+00
    5.5120	 1.188E+01	 0.000E+00	 1.670E+00	 1.107E+00	 3.246E+00	 3.306E+00	 2.489E+02	 0.000E+00	 0.000E+00	 0.000E+00	-7.548E+00	 1.358E+00	 0.000E+00
    5.5200	 1.188E+01	 0.000E+00	 1.670E+00	 1.143E+00	 3.327E+00	 3.223E+00	 2.489E+02	 0.000E+00	 0.000E+00	 0.000E+00	-7.558E+00	 1.358E+00	 0.000E+00
    5.5280	 1.188E+01	 0.000E+00	 1.670E+00	 1.431E+00	 3.393E+00	 3.129E+00	 2.489E+02	 0.000E+00	 0.000E+00	 0.000E+00	-7.568E+00	 1.358E+00	 0.000E+00
    5.5360	 1.188E+01	 0.000E+00	 1.670E+00	 1.822E+00	 3.445E+00	 3.029E+00	 2.489E+02	 0.000E+00	 0.000E+00	 0.000E+00	-7.578E+00	 1.358E+00	 0.000E+00
    5.5440	 1.188E+01	 0.000E+00	 1.670E+00	 2.212E+00	 3.479E+00	 2.926E+00	 2.489E+02	 0.000E+00	 0.000E+00	 0.000E+00	-7.588E+00	 1.356E+00	 0.000E+00
    5.5520	 1.188E+01	 0.000E+00	 1.670E+00	 2.550E+00	 3.495E+00	 2.758E+00	 2.489E+02	 0.000E+00	 0.000E+00	 0.000E+00	-7.598E+00	 1.355E+00	 0.000E+00
    5.5600	 1.188E+01	 0.000E+00	 1.670E+00	 2.802E+00	 3.493E+00	 2.488E+00	 2.490E+02	 0.000E+00	 0.000E+00	 0.000E+00	-7.608E+00	 1.354E+00	 0.000E+00
    5.5680	 1.188E+01	 0.000E+00	 1.670E+00	 2.950E+00	 3.473E+00	 2.138E+00	 2.490E+02	 0.000E+00	 0.000E+00	 0.000E+00	-7.618E+00	 1.355E+00	 0.000E+00
    5.5760	 1.188E+01	 0.000E+00	 1.670E+00	 3.052E+00	 3.435E+00	 1.743E+00	 2.490E+02	 0.000E+00	 0.000E+00	 0.000E+00	-7.628E+00	 1.356E+00	 0.000E+00
    5.5840	 1.188E+01	 0.000E+00	 1.670E+00	 3.151E+00	 3.380E+00	 1.362E+00	 2.490E+02	 0.000E+00	 0.000E+00	 0.000E+00	-7.638E+00	 1.357E+00	 0.000E+00
    5.5920	 1.188E+01	 0.000E+00	 1.670E+00	 3.243E+00	 3.309E+00	 1.112E+00	 2.490E+02	 0.000E+00	 0.000E+00	 0.000E+00	-7.648E+00	 1.358E+00	 0.000E+00
    5.6000	 1.188E+01	 0.000E+00	 1.670E+00	 3.324E+00	 3.226E+00	 1.135E+00	 2.490E+02	 0.000E+00	 0.000E+00	 0.000E+00	-7.657E+00	 1.358E+00	 0.000E+00
    5.6080	 1.188E+01	 0.000E+00	 1.670E+00	 3.391E+00	 3.133E+00	 1.416E+00	 2.491E+02	 0.000E+00	 0.000E+00	 0.000E+00	-7.667E+00	 1.358E+00	 0.000E+00
    5.6160	 1.188E+01	 0.000E+00	 1.670E+00	 3.443E+00	 3.033E+00	 1.805E+00	 2.491E+02	 0.000E+00	 0.000E+00	 0.000E+00	-7.677E+00	 1.358E+00	 0.000E+00
    5.6240	 1.188E+01	 0.000E+00	 1.670E+00	 3.478E+00	 2.930E+00	 2.198E+00	 2.491E+02	 0.000E+00	 0.000E+00	 0.000E+00	-7.686E+00	 1.357E+00	 0.000E+00
    5.6320	 1.188E+01	 0.000E+00	 1.670E+00	 3.495E+00	 2.766E+00	 2.538E+00	 2.491E+02	 0.000E+00	 0.000E+00	 0.000E+00	-7.696E+00	 1.355E+00	 0.000E+00
    5.6400	 1.188E+01	 0.000E+00	 1.670E+00	 3.494E+00	 2.500E+00	 2.794E+00	 2.491E+02	 0.000E+00	 0.000E+00	 0.000E+00	-7.706E+00	 1.354E+00	 0.000E+00
    5.6480	 1.188E+01	 0.000E+00	 1.670E+00	 3.474E+00	 2.153E+00	 2.946E+00	 2.491E+02	 0.000E+00	 0.000E+00	 0.000E+00	-7.716E+00	 1.355E+00	 0.000E+00
    5.6560	 1.188E+01	 0.000E+00	 1.670E+00	 3.436E+00	 1.757E+00	 3.049E+00	 2.492E+02	 0.000E+00	 0.000E+00	 0.000E+00	-7.725E+00	 1.356E+00	 0.000E+00
    5.6640	 1.188E+01	 0.000E+00	 1.670E+00	 3.382E+00	 1.374E+00	 3.148E+00	 2.492E+02	 0.000E+00	 0.000E+00	 0.000E+00	-7.735E+00	 1.357E+00	 0.000E+00
    5.6720	 1.188E+01	 0.000E+00	 1.670E+00	 3.312E+00	 1.117E+00	 3.240E+00	 2.492E+02	 0.000E+00	 0.000E+00	 0.000E+00	-7.745E+00	 1.358E+00	 0.000E+00
    5.6800	 1.188E+01	 0.000E+00	 1.670E+00	 3.230E+00	 1.129E+00	 3.321E+00	 2.492E+02	 0.000E+00	 0.000E+00	 0.000E+00	-7.754E+00	 1.358E+00	 0.000E+00
    5.6880	 1.188E+01	 0.000E+00	 1.670E+00	 3.137E+00	 1.404E+00	 3.389E+00	 2.492E+02	 0.000E+00	 0.000E+00	 0.000E+00	-7.763E+00	 1.358E+00	 0.000E+00
    5.6960	 1.188E+01	 0.000E+00	 1.670E+00	 3.037E+00	 1.791E+00	 3.442E+00	 2.492E+02	 0.000E+00	 0.000E+00	 0.000E+00	-7.773E+00	 1.358E+00	 0.000E+00
    5.7040	 1.188E+01	 0.000E+00	 1.670E+00	 2.933E+00	 2.185E+00	 3.477E+00	 2.493E+02	 0.000E+00	 0.000E+00	 0.000E+00	-7.782E+00	 1.357E+00	 0.000E+00
    5.7120	 1.188E+01	 0.000E+00	 1.670E+00	 2.773E+00	 2.528E+00	 3.495E+00	 2.493E+02	 0.000E+00	 0.000E+00	 0.000E+00	-7.792E+00	 1.355E+00	 0.000E+00
    5.7200	 1.188E+01	 0.000E+00	 1.670E+00	 2.510E+00	 2.787E+00	 3.494E+00	 2.493E+02	 0.000E+00	 0.000E+00	 0.000E+00	-7.801E+00	 1.354E+00	 0.000E+00
    5.7280	 1.188E+01	 0.000E+00	 1.670E+00	 2.164E+00	 2.943E+00	 3.475E+00	 2.493E+02	 0.000E+00	 0.000E+00	 0.000E+00	-7.811E+00	 1.355E+00	 0.000E+00
    5.7360	 1.188E+01	 0.000E+00	 1.670E+00	 1.770E+00	 3.046E+00	 3.438E+00	 2.493E+02	 0.000E+00	 0.000E+00	 0.000E+00	-7.820E+00	 1.356E+00	 0.000E+00
    5.7440	 1.188E+01	 0.000E+00	 1.670E+00	 1.385E+00	 3.145E+00	 3.384E+00	 2.493E+02	 0.000E+00	 0.000E+00	 0.000E+00	-7.829E+00	 1.357E+00	 0.000E+00
    5.7520	 1.188E+01	 0.000E+00	 1.670E+00	 1.121E+00	 3.237E+00	 3.315E+00	 2.493E+02	 0.000E+00	 0.000E+00	 0.000E+00	-7.839E+00	 1.358E+00	 0.000E+00
    5.7600	 1.188E+01	 0.000E+00	 1.670E+00	 1.125E+00	 3.319E+00	 3.232E+00	 2.494E+02	 0.000E+00	 0.000E+00	 0.000E+00	-7.848E+00	 1.358E+00	 0.000E+00
    5.7680	 1.188E+01	 0.000E+00	 1.670E+00	 1.394E+00	 3.387E+00	 3.139E+00	 2.494E+02	 0.000E+00	 0.000E+00	 0.000E+00	-7.857E+00	 1.358E+00	 0.000E+00
    5.7760	 1.188E+01	 0.000E+00	 1.670E+00	 1.780E+00	 3.440E+00	 3.039E+00	 2.494E+02	 0.000E+00	 0.000E+00	 0.000E+00	-7.866E+00	 1.358E+00	 0.000E+00
    5.7840	 1.188E+01	 0.000E+00	 1.670E+00	 2.175E+00	 3.477E+00	 2.936E+00	 2.494E+02	 0.000E+00	 0.000E+00	 0.000E+00	-7.875E+00	 1.357E+00	 0.000E+00
    5.7920	 1.188E+01	 0.000E+00	 1.670E+00	 2.520E+00	 3.495E+00	 2.779E+00	 2.494E+02	 0.000E+00	 0.000E+00	 0.000E+00	-7.884E+00	 1.355E+00	 0.000E+00
    5.8000	 1.188E+01	 0.000E+00	 1.670E+00	 2.782E+00	 3.495E+00	 2.518E+00	 2.494E+02	 0.000E+00	 0.000E+00	 0.000E+00	-7.893E+00	 1.354E+00	 0.000E+00
    5.8080	 1.188E+01	 0.000E+00	 1.670E+00	 2.940E+00	 3.476E+00	 2.174E+00	 2.495E+02	 0.000E+00	 0.000E+00	 0.000E+00	-7.903E+00	 1.355E+00	 0.000E+00
    5.8160	 1.188E+01	 0.000E+00	 1.670E+00	 3.043E+00	 3.439E+00	 1.779E+00	 2.495E+02	 0.000E+00	 0.000E+00	 0.000E+00	-7.912E+00	 1.356E+00	 0.000E+00
    5.8240	 1.188E+01	 0.000E+00	 1.670E+00	 3.143E+00	 3.385E+00	 1.393E+00	 2.495E+02	 0.000E+00	 0.000E+00	 0.000E+00	-7.921E+00	 1.357E+00	 0.000E+00
    5.8320	 1.188E+01	 0.000E+00	 1.670E+00	 3.235E+00	 3.316E+00	 1.124E+00	 2.495E+02	 0.000E+00	 0.000E+00	 0.000E+00	-7.930E+00	 1.358E+00	 0.000E+00
    5.8400	 1.188E+01	 0.000E+00	 1.670E+00	 3.317E+00	 3.234E+00	 1.121E+00	 2.495E+02	 0.000E+00	 0.000E+00	 0.000E+00	-7.939E+00	 1.358E+00	 0.000E+00
    5.8480	 1.188E+01	 0.000E+00	 1.670E+00	 3.386E+00	 3.141E+00	 1.386E+00	 2.495E+02	 0.000E+00	 0.000E+00	 0.000E+00	-7.948E+00	 1.358E+00	 0.000E+00
    5.8560	 1.188E+01	 0.000E+00	 1.670E+00	 3.440E+00	 3.042E+00	 1.772E+00	 2.496E+02	 0.000E+00	 0.000E+00	 0.000E+00	-7.956E+00	 1.358E+00	 0.000E+00
    5.8640	 1.188E+01	 0.000E+00	 1.670E+00	 3.476E+00	 2.938E+00	 2.167E+00	 2.496E+02	 0.000E+00	 0.000E+00	 0.000E+00	-7.965E+00	 1.357E+00	 0.000E+00
    5.8720	 1.188E+01	 0.000E+00	 1.670E+00	 3.495E+00	 2.783E+00	 2.514E+00	 2.496E+02	 0.000E+00	 0.000E+00	 0.000E+00	-7.974E+00	 1.355E+00	 0.000E+00
    5.8800	 1.188E+01	 0.000E+00	 1.670E+00	 3.495E+00	 2.524E+00	 2.777E+00	 2.496E+02	 0.000E+00	 0.000E+00	 0.000E+00	-7.983E+00	 1.354E+00	 0.000E+00
    5.8880	 1.188E+01	 0.000E+00	 1.670E+00	 3.476E+00	 2.181E+00	 2.938E+00	 2.496E+02	 0.000E+00	 0.000E+00	 0.000E+00	-7.992E+00	 1.354E+00	 0.000E+00
    5.8960	 1.188E+01	 0.000E+00	 1.670E+00	 3.440E+00	 1.787E+00	 3.041E+00	 2.496E+02	 0.000E+00	 0.000E+00	 0.000E+00	-8.001E+00	 1.356E+00	 0.000E+00
    5.9040	 1.188E+01	 0.000E+00	 1.670E+00	 3.386E+00	 1.399E+00	 3.141E+00	 2.496E+02	 0.000E+00	 0.000E+00	 0.000E+00	-8.010E+00	 1.357E+00	 0.000E+00
    5.9120	 1.188E+01	 0.000E+00	 1.670E+00	 3.318E+00	 1.127E+00	 3.234E+00	 2.497E+02	 0.000E+00	 0.000E+00	 0.000E+00	-8.018E+00	 1.358E+00	 0.000E+00
    5.9200	 1.188E+01	 0.000E+00	 1.670E+00	 3.236E+00	 1.119E+00	 3.316E+00	 2.497E+02	 0.000E+00	 0.000E+00	 0.000E+00	-8.027E+00	 1.358E+00	 0.000E+00
    5.9280	 1.188E+01	 0.000E+00	 1.670E+00	 3.143E+00	 1.380E+00	 3.385E+00	 2.497E+02	 0.000E+00	 0.000E+00	 0.000E+00	-8.035E+00	 1.358E+00	 0.000E+00
    5.9360	 1.188E+01	 0.000E+00	 1.670E+00	 3.043E+00	 1.766E+00	 3.439E+00	 2.497E+02	 0.000E+00	 0.000E+00	 0.000E+00	-8.044E+00	 1.358E+00	 0.000E+00
    5.9440	 1.188E+01	 0.000E+00	 1.670E+00	 2.940E+00	 2.162E+00	 3.476E+00	 2.497E+02	 0.000E+00	 0.000E+00	 0.000E+00	-8.052E+00	 1.357E+00	 0.000E+00
    5.9520	 1.188E+01	 0.000E+00	 1.670E+00	 2.786E+00	 2.509E+00	 3.495E+00	 2.497E+02	 0.000E+00	 0.000E+00	 0.000E+00	-8.061E+00	 1.355E+00	 0.000E+00
    5.9600	 1.188E+01	 0.000E+00	 1.670E+00	 2.528E+00	 2.775E+00	 3.495E+00	 2.497E+02	 0.000E+00	 0.000E+00	 0.000E+00	-8.070E+00	 1.354E+00	 0.000E+00
    5.9680	 1.188E+01	 0.000E+00	 1.670E+00	 2.186E+00	 2.937E+00	 3.477E+00	 2.498E+02	 0.000E+00	 0.000E+00	 0.000E+00	-8.078E+00	 1.354E+00	 0.000E+00
    5.9760	 1.188E+01	 0.000E+00	 1.670E+00	 1.792E+00	 3.040E+00	 3.441E+00	 2.498E+02	 0.000E+00	 0.000E+00	 0.000E+00	-8.087E+00	 1.355E+00	 0.000E+00
    5.9840	 1.188E+01	 0.000E+00	 1.670E+00	 1.403E+00	 3.140E+00	 3.387E+00	 2.498E+02	 0.000E+00	 0.000E+00	 0.000E+00	-8.096E+00	 1.357E+00	 0.000E+00
    5.9920	 1.188E+01	 0.000E+00	 1.670E+00	 1.128E+00	 3.233E+00	 3.319E+00	 2.498E+02	 0.000E+00	 0.000E+00	 0.000E+00	-8.104E+00	 1.358E+00	 0.000E+00
    6.0000	 1.188E+01	 0.000E+00	 1.670E+00	 1.117E+00	 3.315E+00	 3.237E+00	 2.498E+02	 0.000E+00	 0.000E+00	 0.000E+00	-8.112E+00	 1.358E+00	 0.000E+00
    6.0080	 1.188E+01	 0.000E+00	 1.670E+00	 1.377E+00	 3.385E+00	 3.144E+00	 2.498E+02	 0.000E+00	 0.000E+00	 0.000E+00	-8.121E+00	 1.358E+00	 0.000E+00
    6.0160	 1.188E+01	 0.000E+00	 1.670E+00	 1.762E+00	 3.439E+00	 3.044E+00	 2.498E+02	 0.000E+00	 0.000E+00	 0.000E+00	-8.129E+00	 1.358E+00	 0.000E+00
    6.0240	 1.188E+01	 0.000E+00	 1.670E+00	 2.158E+00	 3.476E+00	 2.941E+00	 2.499E+02	 0.000E+00	 0.000E+00	 0.000E+00	-8.137E+00	 1.356E+00	 0.000E+00
    6.0320	 1.188E+01	 0.000E+00	 1.670E+00	 2.507E+00	 3.495E+00	 2.788E+00	 2.499E+02	 0.000E+00	 0.000E+00	 0.000E+00	-8.146E+00	 1.355E+00	 0.000E+00
    6.0400	 1.188E+01	 0.000E+00	 1.670E+00	 2.773E+00	 3.495E+00	 2.530E+00	 2.499E+02	 0.000E+00	 0.000E+00	 0.000E+00	-8.154E+00	 1.354E+00	 0.000E+00
    6.0480	 1.188E+01	 0.000E+00	 1.670E+00	 2.936E+00	 3.477E+00	 2.188E+00	 2.499E+02	 0.000E+00	 0.000E+00	 0.000E+00	-8.163E+00	 1.354E+00	 0.000E+00
    6.0560	 1.188E+01	 0.000E+00	 1.670E+00	 3.039E+00	 3.441E+00	 1.794E+00	 2.499E+02	 0.000E+00	 0.000E+00	 0.000E+00	-8.171E+00	 1.355E+00	 0.000E+00
    6.0640	 1.188E+01	 0.000E+00	 1.670E+00	 3.139E+00	 3.388E+00	 1.405E+00	 2.499E+02	 0.000E+00	 0.000E+00	 0.000E+00	-8.179E+00	 1.357E+00	 0.000E+00
    6.0720	 1.188E+01	 0.000E+00	 1.670E+00	 3.232E+00	 3.319E+00	 1.129E+00	 2.499E+02	 0.000E+00	 0.000E+00	 0.000E+00	-8.187E+00	 1.358E+00	 0.000E+00
    6.0800	 1.188E+01	 0.000E+00	 1.670E+00	 3.315E+00	 3.237E+00	 1.116E+00	 2.500E+02	 0.000E+00	 0.000E+00	 0.000E+00	-8.195E+00	 1.358E+00	 0.000E+00
    6.0880	 1.188E+01	 0.000E+00	 1.670E+00	 3.384E+00	 3.144E+00	 1.375E+00	 2.500E+02	 0.000E+00	 0.000E+00	 0.000E+00	-8.204E+00	 1.358E+00	 0.000E+00
    6.0960	 1.188E+01	 0.000E+00	 1.670E+00	 3.438E+00	 3.045E+00	 1.760E+00	 2.500E+02	 0.000E+00	 0.000E+00	 0.000E+00	-8.212E+00	 1.358E+00	 0.000E+00
    6.1040	 1.188E+01	 0.000E+00	 1.670E+00	 3.476E+00	 2.941E+00	 2.157E+00	 2.500E+02	 0.000E+00	 0.000E+00	 0.000E+00	-8.220E+00	 1.356E+00	 0.000E+00
    6.1120	 1.188E+01	 0.000E+00	 1.670E+00	 3.495E+00	 2.788E+00	 2.506E+00	 2.500E+02	 0.000E+00	 0.000E+00	 0.000E+00	-8.228E+00	 1.355E+00	 0.000E+00
    6.1200	 1.188E+01	 0.000E+00	 1.670E+00	 3.495E+00	 2.531E+00	 2.773E+00	 2.500E+02	 0.000E+00	 0.000E+00	 0.000E+00	-8.236E+00	 1.354E+00	 0.000E+00
    6.1280	 1.188E+01	 0.000E+00	 1.670E+00	 3.477E+00	 2.189E+00	 2.936E+00	 2.500E+02	 0.000E+00	 0.000E+00	 0.000E+00	-8.244E+00	 1.354E+00	 0.000E+00
    6.1360	 1.188E+01	 0.000E+00	 1.670E+00	 3.441E+00	 1.794E+00	 3.039E+00	 2.500E+02	 0.000E+00	 0.000E+00	 0.000E+00	-8.252E+00	 1.355E+00	 0.000E+00
    6.1440	 1.188E+01	 0.000E+00	 1.670E+00	 3.388E+00	 1.405E+00	 3.139E+00	 2.501E+02	 0.000E+00	 0.000E+00	 0.000E+00	-8.260E+00	 1.357E+00	 0.000E+00
    6.1520	 1.188E+01	 0.000E+00	 1.670E+00	 3.319E+00	 1.129E+00	 3.232E+00	 2.501E+02	 0.000E+00	 0.000E+00	 0.000E+00	-8.268E+00	 1.358E+00	 0.000E+00
    6.1600	 1.188E+01	 0.000E+00	 1.670E+00	 3.237E+00	 1.116E+00	 3.315E+00	 2.501E+02	 0.000E+00	 0.000E+00	 0.000E+00	-8.276E+00	 1.358E+00	 0.000E+00
    6.1680	 1.188E+01	 0.000E+00	 1.670E+00	 3.144E+00	 1.376E+00	 3.384E+00	 2.501E+02	 0.000E+00	 0.000E+00	 0.000E+00	-8.284E+00	 1.358E+00	 0.000E+00
    6.1760	 1.188E+01	 0.000E+00	 1.670E+00	 3.044E+00	 1.761E+00	 3.439E+00	 2.501E+02	 0.000E+00	 0.000E+00	 0.000E+00	-8.292E+00	 1.358E+00	 0.000E+00
    6.1840	 1.188E+01	 0.000E+00	 1.670E+00	 2.941E+00	 2.158E+00	 3.476E+00	 2.501E+02	 0.000E+00	 0.000E+00	 0.000E+00	-8.299E+00	 1.356E+00	 0.000E+00
    6.1920	 1.188E+01	 0.000E+00	 1.670E+00	 2.788E+00	 2.507E+00	 3.495E+00	 2.501E+02	 0.000E+00	 0.000E+00	 0.000E+00	-8.307E+00	 1.355E+00	 0.000E+00
    6.2000	 1.188E+01	 0.000E+00	 1.670E+00	 2.530E+00	 2.773E+00	 3.495E+00	 2.502E+02	 0.000E+00	 0.000E+00	 0.000E+00	-8.315E+00	 1.354E+00	 0.000E+00
    6.2080	 1.188E+01	 0.000E+00	 1.670E+00	 2.187E+00	 2.936E+00	 3.477E+00	 2.502E+02	 0.000E+00	 0.000E+00	 0.000E+00	-8.323E+00	 1.354E+00	 0.000E+00
    6.2160	 1.188E+01	 0.000E+00	 1.670E+00	 1.792E+00	 3.040E+00	 3.441E+00	 2.502E+02	 0.000E+00	 0.000E+00	 0.000E+00	-8.331E+00	 1.355E+00	 0.000E+00
    6.2240	 1.188E+01	 0.000E+00	 1.670E+00	 1.403E+00	 3.140E+00	 3.387E+00	 2.502E+02	 0.000E+00	 0.000E+00	 0.000E+00	-8.339E+00	 1.357E+00	 0.000E+00
    6.2320	 1.188E+01	 0.000E+00	 1.670E+00	 1.128E+00	 3.233E+00	 3.319E+00	 2.502E+02	 0.000E+00	 0.000E+00	 0.000E+00	-8.347E+00	 1.358E+00	 0.000E+00
    6.2400	 1.188E+01	 0.000E+00	 1.670E+00	 1.117E+00	 3.316E+00	 3.236E+00	 2.502E+02	 0.000E+00	 0.000E+00	 0.000E+00	-8.354E+00	 1.358E+00	 0.000E+00
    6.2480	 1.188E+01	 0.000E+00	 1.670E+00	 1.378E+00	 3.385E+00	 3.144E+00	 2.502E+02	 0.000E+00	 0.000E+00	 0.000E+00	-8.362E+00	 1.358E+00	 0.000E+00
    6.2560	 1.188E+01	 0.000E+00	 1.670E+00	 1.764E+00	 3.439E+00	 3.044E+00	 2.503E+02	 0.000E+00	 0.000E+00	 0.000E+00	-8.369E+00	 1.358E+00	 0.000E+00
    6.2640	 1.188E+01	 0.000E+00	 1.670E+00	 2.161E+00	 3.476E+00	 2.940E+00	 2.503E+02	 0.000E+00	 0.000E+00	 0.000E+00	-8.377E+00	 1.356E+00	 0.000E+00
    6.2720	 1.188E+01	 0.000E+00	 1.670E+00	 2.510E+00	 3.495E+00	 2.786E+00	 2.503E+02	 0.000E+00	 0.000E+00	 0.000E+00	-8.385E+00	 1.355E+00	 0.000E+00
    6.2800	 1.188E+01	 0.000E+00	 1.670E+00	 2.775E+00	 3.495E+00	 2.527E+00	 2.503E+02	 0.000E+00	 0.000E+00	 0.000E+00	-8.392E+00	 1.354E+00	 0.000E+00
    6.2880	 1.188E+01	 0.000E+00	 1.670E+00	 2.937E+00	 3.477E+00	 2.184E+00	 2.503E+02	 0.000E+00	 0.000E+00	 0.000E+00	-8.400E+00	 1.354E+00	 0.000E+00
    6.2960	 1.188E+01	 0.000E+00	 1.670E+00	 3.041E+00	 3.440E+00	 1.788E+00	 2.503E+02	 0.000E+00	 0.000E+00	 0.000E+00	-8.408E+00	 1.355E+00	 0.000E+00
    6.3040	 1.188E+01	 0.000E+00	 1.670E+00	 3.141E+00	 3.387E+00	 1.399E+00	 2.503E+02	 0.000E+00	 0.000E+00	 0.000E+00	-8.415E+00	 1.357E+00	 0.000E+00
    6.3120	 1.188E+01	 0.000E+00	 1.670E+00	 3.234E+00	 3.318E+00	 1.126E+00	 2.503E+02	 0.000E+00	 0.000E+00	 0.000E+00	-8.423E+00	 1.358E+00	 0.000E+00
    6.3200	 1.188E+01	 0.000E+00	 1.670E+00	 3.316E+00	 3.235E+00	 1.119E+00	 2.504E+02	 0.000E+00	 0.000E+00	 0.000E+00	-8.430E+00	 1.358E+00	 0.000E+00
    6.3280	 1.188E+01	 0.000E+00	 1.670E+00	 3.386E+00	 3.143E+00	 1.382E+00	 2.504E+02	 0.000E+00	 0.000E+00	 0.000E+00	-8.437E+00	 1.358E+00	 0.000E+00
    6.3360	 1.188E+01	 0.000E+00	 1.670E+00	 3.440E+00	 3.042E+00	 1.769E+00	 2.504E+02	 0.000E+00	 0.000E+00	 0.000E+00	-8.445E+00	 1.358E+00	 0.000E+00
    6.3440	 1.188E+01	 0.000E+00	 1.670E+00	 3.476E+00	 2.939E+00	 2.166E+00	 2.504E+02	 0.000E+00	 0.000E+00	 0.000E+00	-8.452E+00	 1.356E+00	 0.000E+00
    6.3520	 1.188E+01	 0.000E+00	 1.670E+00	 3.495E+00	 2.783E+00	 2.514E+00	 2.504E+02	 0.000E+00	 0.000E+00	 0.000E+00	-8.460E+00	 1.355E+00	 0.000E+00
    6.3600	 1.188E+01	 0.000E+00	 1.670E+00	 3.495E+00	 2.523E+00	 2.778E+00	 2.504E+02	 0.000E+00	 0.000E+00	 0.000E+00	-8.467E+00	 1.354E+00	 0.000E+00
    6.3680	 1.188E+01	 0.000E+00	 1.670E+00	 3.476E+00	 2.178E+00	 2.939E+00	 2.504E+02	 0.000E+00	 0.000E+00	 0.000E+00	-8.474E+00	 1.354E+00	 0.000E+00
    6.3760	 1.188E+01	 0.000E+00	 1.670E+00	 3.440E+00	 1.782E+00	 3.042E+00	 2.504E+02	 0.000E+00	 0.000E+00	 0.000E+00	-8.482E+00	 1.355E+00	 0.000E+00
    6.3840	 1.188E+01	 0.000E+00	 1.670E+00	 3.386E+00	 1.394E+00	 3.143E+00	 2.504E+02	 0.000E+00	 0.000E+00	 0.000E+00	-8.489E+00	 1.357E+00	 0.000E+00
    6.3920	 1.188E+01	 0.000E+00	 1.670E+00	 3.317E+00	 1.124E+00	 3.235E+00	 2.505E+02	 0.000E+00	 0.000E+00	 0.000E+00	-8.497E+00	 1.358E+00	 0.000E+00
    6.4000	 1.188E+01	 0.000E+00	 1.670E+00	 3.234E+00	 1.121E+00	 3.318E+00	 2.505E+02	 0.000E+00	 0.000E+00	 0.000E+00	-8.504E+00	 1.358E+00	 0.000E+00
    6.4080	 1.188E+01	 0.000E+00	 1.670E+00	 3.141E+00	 1.388E+00	 3.387E+00	 2.505E+02	 0.000E+00	 0.000E+00	 0.000E+00	-8.511E+00	 1.358E+00	 0.000E+00
    6.4160	 1.188E+01	 0.000E+00	 1.670E+00	 3.041E+00	 1.776E+00	 3.440E+00	 2.505E+02	 0.000E+00	 0.000E+00	 0.000E+00	-8.518E+00	 1.358E+00	 0.000E+00
    6.4240	 1.188E+01	 0.000E+00	 1.670E+00	 2.937E+00	 2.173E+00	 3.477E+00	 2.505E+02	 0.000E+00	 0.000E+00	 0.000E+00	-8.525E+00	 1.356E+00	 0.000E+00
    6.4320	 1.188E+01	 0.000E+00	 1.670E+00	 2.779E+00	 2.519E+00	 3.495E+00	 2.505E+02	 0.000E+00	 0.000E+00	 0.000E+00	-8.532E+00	 1.354E+00	 0.000E+00
    6.4400	 1.188E+01	 0.000E+00	 1.670E+00	 2.517E+00	 2.782E+00	 3.495E+00	 2.505E+02	 0.000E+00	 0.000E+00	 0.000E+00	-8.540E+00	 1.354E+00	 0.000E+00
    6.4480	 1.188E+01	 0.000E+00	 1.670E+00	 2.171E+00	 2.941E+00	 3.476E+00	 2.505E+02	 0.000E+00	 0.000E+00	 0.000E+00	-8.547E+00	 1.354E+00	 0.000E+00
    6.4560	 1.188E+01	 0.000E+00	 1.670E+00	 1.774E+00	 3.044E+00	 3.439E+00	 2.506E+02	 0.000E+00	 0.000E+00	 0.000E+00	-8.554E+00	 1.355E+00	 0.000E+00
    6.4640	 1.188E+01	 0.000E+00	 1.670E+00	 1.386E+00	 3.145E+00	 3.385E+00	 2.506E+02	 0.000E+00	 0.000E+00	 0.000E+00	-8.561E+00	 1.357E+00	 0.000E+00
    6.4720	 1.188E+01	 0.000E+00	 1.670E+00	 1.120E+00	 3.237E+00	 3.315E+00	 2.506E+02	 0.000E+00	 0.000E+00	 0.000E+00	-8.568E+00	 1.358E+00	 0.000E+00
    6.4800	 1.188E+01	 0.000E+00	 1.670E+00	 1.124E+00	 3.319E+00	 3.232E+00	 2.506E+02	 0.000E+00	 0.000E+00	 0.000E+00	-8.575E+00	 1.358E+00	 0.000E+00
    6.4880	 1.188E+01	 0.000E+00	 1.670E+00	 1.396E+00	 3.388E+00	 3.139E+00	 2.506E+02	 0.000E+00	 0.000E+00	 0.000E+00	-8.582E+00	 1.358E+00	 0.000E+00