
FAST Summary File

Predictions were generated on 27-Jan-2014 at 10:44:27 using FAST (v8.05.00b-bjj, 22-Jan-2014), compiled for 32-bit systems using single precision
  compiled with
    NWTC Subroutine Library (v2.03.00d-bjj, 22-Jan-2014)
    ElastoDyn (v1.01.02b-bjj, 03-Oct-2013)
    ServoDyn (v1.01.01b-bjj, 03-Oct-2013)
    AeroDyn (v14.02.01a-bjj, 07-Jan-2014)
    InflowWind (v2.00.01a-bjj, 22-Jan-2014)
    HydroDyn (v2.00.02d-gjh, 23-Jan-2014)
    SubDyn (v1.00.00b-rrd, 12-Dec-2013)
    MAP (unknown version, unknown date) [not called]
    FEAM (unknown version, unknown date) [not called]


Modeling a fixed-bottom offshore turbine
Description from the FAST input file: 
  FAST Certification Test #19: NREL 5.0 MW Baseline Wind Turbine with Monopile RF Configuration, for use in offshore analysis

Interpolation order for input/output time histories: 2 (quadratic)
Number of correction iterations:  1
Glue code time step (seconds): 1.00000E-03
Number of rows in Jacobian matrix used for coupling ElastoDyn, SubDyn, and HydroDyn:    498


   Requested Channels in FAST Output File(s) 
  -------------------------------------------
  Number  Name        Units       Generated by
  ------  ----------  ----------  ------------
       1  Time        (s)         FAST
       2  WindVxi     (m/s)       InflowWind
       3  WindVyi     (m/s)       InflowWind
       4  WindVzi     (m/s)       InflowWind
       5  OoPDefl1    (m)         ElastoDyn
       6  IPDefl1     (m)         ElastoDyn
       7  TwstDefl1   (deg)       ElastoDyn
       8  BldPitch1   (deg)       ElastoDyn
       9  Azimuth     (deg)       ElastoDyn
      10  RotSpeed    (rpm)       ElastoDyn
      11  GenSpeed    (rpm)       ElastoDyn
      12  TwHt1TPxi   (m)         ElastoDyn
      13  TwHt1TPyi   (m)         ElastoDyn
      14  TTDspTwst   (deg)       ElastoDyn
      15  PtfmTDxi    (m)         ElastoDyn
      16  PtfmTDyi    (m)         ElastoDyn
      17  PtfmTDzi    (m)         ElastoDyn
      18  PtfmRDxi    (deg)       ElastoDyn
      19  PtfmRDyi    (deg)       ElastoDyn
      20  PtfmRDzi    (deg)       ElastoDyn
      21  Spn2MLxb1   (kN·m)      ElastoDyn
      22  Spn2MLyb1   (kN·m)      ElastoDyn
      23  RootFxc1    (kN)        ElastoDyn
      24  RootFyc1    (kN)        ElastoDyn
      25  RootFzc1    (kN)        ElastoDyn
      26  RootMxc1    (kN·m)      ElastoDyn
      27  RootMyc1    (kN·m)      ElastoDyn
      28  RootMzc1    (kN·m)      ElastoDyn
      29  RotTorq     (kN·m)      ElastoDyn
      30  LSSGagMya   (kN·m)      ElastoDyn
      31  LSSGagMza   (kN·m)      ElastoDyn
      32  YawBrFxp    (kN)        ElastoDyn
      33  YawBrFyp    (kN)        ElastoDyn
      34  YawBrFzp    (kN)        ElastoDyn
      35  YawBrMxp    (kN·m)      ElastoDyn
      36  YawBrMyp    (kN·m)      ElastoDyn
      37  YawBrMzp    (kN·m)      ElastoDyn
      38  GenPwr      (kW)        ServoDyn
      39  GenTq       (kN·m)      ServoDyn
      40  Wave1Elev   (m)         HydroDyn
      41  ReactXss    (N)         SubDyn
      42  ReactYss    (N)         SubDyn
      43  ReactZss    (N)         SubDyn
      44  ReactMXss   (Nm)        SubDyn
      45  ReactMYss   (Nm)        SubDyn
      46  ReactMZss   (Nm)        SubDyn
      47  IntfXss     (N)         SubDyn
      48  IntfYss     (N)         SubDyn
      49  IntfZss     (N)         SubDyn
      50  IntfMXss    (Nm)        SubDyn
      51  IntfMYss    (Nm)        SubDyn
      52  IntfMZss    (Nm)        SubDyn
      53  IntfTDXss   (m)         SubDyn
      54  IntfTDYss   (m)         SubDyn
      55  IntfTDZss   (m)         SubDyn
      56  IntfRDXss   (rad)       SubDyn
      57  IntfRDYss   (rad)       SubDyn
      58  IntfRDZss   (rad)       SubDyn
      59  IntfTAXss   (m/s^2)     SubDyn
      60  IntfTAYss   (m/s^2)     SubDyn
      61  IntfTAZss   (m/s^2)     SubDyn
      62  IntfRAXss   (rad/s^2)   SubDyn
      63  IntfRAYss   (rad/s^2)   SubDyn
      64  IntfRAZss   (rad/s^2)   SubDyn
      65  M1N1TAxE    (m/s^2)     SubDyn
      66  M1N2TAxE    (m/s^2)     SubDyn
      67  M1N3TAxE    (m/s^2)     SubDyn
      68  M1N4TAxE    (m/s^2)     SubDyn
      69  M1N5TAxE    (m/s^2)     SubDyn
