
Predictions were generated on 02-Apr-2013 at 13:20:56 using FAST (v8.00.00a-bjj, 31-March-2013), compiled using SINGLE precision
 linked with  NWTC Subroutine Library (v2.00.00c-bjj, 5-Feb-2013); ElastoDyn (v1.00.00a-bjj, 31-March-2013); ServoDyn (v1.00.00, 31-March-2013); AeroDyn (v13.00.02a-bjj, 02-Apr-2013)

Description from the FAST input file: FAST certification Test #02: AWT-27CR2 with many DOFs with startup and shutdown and steady wind.

Time      	WindVxi   	WindVyi   	WindVzi   	Spn1ALxb1 	Spn1ALyb1 	Spn1ALzb1 	RotSpeed  	LSSGagVxa 	RootFxb1  	RootFyb1  	RootFxb2  	RootFyb2  	RootMIP2  	RootMOoP2 	Spn1MLxb1 	Spn1MLyb1 	RotTorq   	LSSTipMys 	LSSTipMzs 	LSSGagMya 	LSSGagMza 	HSShftTq  	HSShftPwr 	GenTq     	GenPwr    
(s)       	(m/s)     	(m/s)     	(m/s)     	(m/s^2)   	(m/s^2)   	(m/s^2)   	(rpm)     	(rpm)     	(kN)      	(kN)      	(kN)      	(kN)      	(kN·m)    	(kN·m)    	(kN·m)    	(kN·m)    	(kN·m)    	(kN·m)    	(kN·m)    	(kN·m)    	(kN·m)    	(kN·m)    	(kW)      	(kN·m)    	(kW)      
    5.0000	 1.200E+01	 0.000E+00	 0.000E+00	 2.748E-02	 6.949E-03	-1.210E-02	 1.793E-01	 1.793E-01	 3.279E+00	-3.184E-01	 2.892E+00	 1.303E-01	-1.024E+00	 1.549E+01	-2.107E-01	 3.925E+00	 3.504E-02	 3.458E+00	-3.307E-01	 7.951E+00	-7.414E-01	 1.557E-03	 6.580E-04	 0.000E+00	 0.000E+00
    5.0400	 1.200E+01	 0.000E+00	 0.000E+00	 2.903E-02	 7.790E-03	-6.837E-03	 1.798E-01	 1.798E-01	 3.287E+00	-3.220E-01	 2.902E+00	 1.330E-01	-1.036E+00	 1.555E+01	-2.078E-01	 3.945E+00	 3.772E-02	 3.442E+00	-3.383E-01	 7.935E+00	-7.538E-01	 1.677E-03	 7.102E-04	 0.000E+00	 0.000E+00
    5.0800	 1.200E+01	 0.000E+00	 0.000E+00	 2.892E-02	 8.339E-03	-4.485E-03	 1.803E-01	 1.803E-01	 3.294E+00	-3.254E-01	 2.912E+00	 1.358E-01	-1.049E+00	 1.561E+01	-2.047E-01	 3.959E+00	 3.771E-02	 3.426E+00	-3.446E-01	 7.919E+00	-7.651E-01	 1.676E-03	 7.118E-04	 0.000E+00	 0.000E+00
    5.1200	 1.200E+01	 0.000E+00	 0.000E+00	 2.815E-02	 8.652E-03	-5.231E-03	 1.807E-01	 1.807E-01	 3.302E+00	-3.287E-01	 2.922E+00	 1.388E-01	-1.063E+00	 1.565E+01	-2.015E-01	 3.965E+00	 3.435E-02	 3.410E+00	-3.493E-01	 7.903E+00	-7.747E-01	 1.527E-03	 6.500E-04	 0.000E+00	 0.000E+00
    5.1600	 1.200E+01	 0.000E+00	 0.000E+00	 2.613E-02	 8.783E-03	-8.986E-03	 1.811E-01	 1.811E-01	 3.309E+00	-3.320E-01	 2.931E+00	 1.420E-01	-1.080E+00	 1.568E+01	-1.981E-01	 3.964E+00	 2.839E-02	 3.395E+00	-3.526E-01	 7.887E+00	-7.830E-01	 1.262E-03	 5.385E-04	 0.000E+00	 0.000E+00
    5.2000	 1.200E+01	 0.000E+00	 0.000E+00	 2.132E-02	 8.437E-03	-1.542E-02	 1.814E-01	 1.814E-01	 3.317E+00	-3.352E-01	 2.941E+00	 1.451E-01	-1.096E+00	 1.570E+01	-1.947E-01	 3.960E+00	 2.096E-02	 3.380E+00	-3.553E-01	 7.871E+00	-7.905E-01	 9.317E-04	 3.983E-04	 0.000E+00	 0.000E+00
    5.2400	 1.200E+01	 0.000E+00	 0.000E+00	 1.168E-02	 7.801E-03	-2.400E-02	 1.816E-01	 1.817E-01	 3.327E+00	-3.385E-01	 2.954E+00	 1.483E-01	-1.113E+00	 1.574E+01	-1.916E-01	 3.961E+00	 1.446E-02	 3.366E+00	-3.583E-01	 7.857E+00	-7.986E-01	 6.428E-04	 2.752E-04	 0.000E+00	 0.000E+00
    5.2800	 1.200E+01	 0.000E+00	 0.000E+00	-4.014E-03	 6.521E-03	-3.407E-02	 1.818E-01	 1.818E-01	 3.340E+00	-3.420E-01	 2.969E+00	 1.513E-01	-1.129E+00	 1.580E+01	-1.889E-01	 3.970E+00	 1.012E-02	 3.352E+00	-3.626E-01	 7.844E+00	-8.080E-01	 4.497E-04	 1.927E-04	 0.000E+00	 0.000E+00
    5.3200	 1.200E+01	 0.000E+00	 0.000E+00	-2.572E-02	 4.796E-03	-4.494E-02	 1.819E-01	 1.819E-01	 3.357E+00	-3.457E-01	 2.988E+00	 1.541E-01	-1.143E+00	 1.589E+01	-1.868E-01	 3.991E+00	 8.909E-03	 3.340E+00	-3.686E-01	 7.832E+00	-8.191E-01	 3.960E-04	 1.697E-04	 0.000E+00	 0.000E+00
    5.3600	 1.200E+01	 0.000E+00	 0.000E+00	-5.151E-02	 2.698E-03	-5.588E-02	 1.821E-01	 1.821E-01	 3.376E+00	-3.496E-01	 3.009E+00	 1.568E-01	-1.156E+00	 1.600E+01	-1.850E-01	 4.021E+00	 1.023E-02	 3.329E+00	-3.759E-01	 7.822E+00	-8.316E-01	 4.545E-04	 1.950E-04	 0.000E+00	 0.000E+00
    5.4000	 1.200E+01	 0.000E+00	 0.000E+00	-7.863E-02	 7.144E-04	-6.627E-02	 1.822E-01	 1.822E-01	 3.396E+00	-3.537E-01	 3.031E+00	 1.594E-01	-1.168E+00	 1.612E+01	-1.836E-01	 4.056E+00	 1.320E-02	 3.319E+00	-3.841E-01	 7.814E+00	-8.451E-01	 5.869E-04	 2.520E-04	 0.000E+00	 0.000E+00
    5.4400	 1.200E+01	 0.000E+00	 0.000E+00	-1.033E-01	-1.145E-03	-7.554E-02	 1.824E-01	 1.824E-01	 3.415E+00	-3.577E-01	 3.052E+00	 1.620E-01	-1.181E+00	 1.624E+01	-1.820E-01	 4.090E+00	 1.559E-02	 3.310E+00	-3.920E-01	 7.805E+00	-8.583E-01	 6.929E-04	 2.978E-04	 0.000E+00	 0.000E+00
    5.4800	 1.200E+01	 0.000E+00	 0.000E+00	-1.226E-01	-2.469E-03	-8.322E-02	 1.826E-01	 1.826E-01	 3.432E+00	-3.615E-01	 3.070E+00	 1.647E-01	-1.194E+00	 1.633E+01	-1.800E-01	 4.116E+00	 1.620E-02	 3.301E+00	-3.990E-01	 7.797E+00	-8.705E-01	 7.199E-04	 3.097E-04	 0.000E+00	 0.000E+00
    5.5200	 1.200E+01	 0.000E+00	 0.000E+00	-1.338E-01	-3.039E-03	-8.883E-02	 1.828E-01	 1.828E-01	 3.444E+00	-3.652E-01	 3.085E+00	 1.676E-01	-1.208E+00	 1.640E+01	-1.776E-01	 4.132E+00	 1.419E-02	 3.293E+00	-4.044E-01	 7.789E+00	-8.813E-01	 6.307E-04	 2.717E-04	 0.000E+00	 0.000E+00
    5.5600	 1.200E+01	 0.000E+00	 0.000E+00	-1.371E-01	-2.844E-03	-9.209E-02	 1.829E-01	 1.830E-01	 3.453E+00	-3.686E-01	 3.095E+00	 1.707E-01	-1.224E+00	 1.644E+01	-1.745E-01	 4.137E+00	 9.674E-03	 3.285E+00	-4.085E-01	 7.781E+00	-8.906E-01	 4.299E-04	 1.853E-04	 0.000E+00	 0.000E+00
    5.6000	 1.200E+01	 0.000E+00	 0.000E+00	-1.337E-01	-2.041E-03	-9.278E-02	 1.830E-01	 1.830E-01	 3.458E+00	-3.719E-01	 3.101E+00	 1.738E-01	-1.240E+00	 1.645E+01	-1.709E-01	 4.135E+00	 3.540E-03	 3.276E+00	-4.116E-01	 7.772E+00	-8.990E-01	 1.573E-04	 6.785E-05	 0.000E+00	 0.000E+00
    5.6400	 1.200E+01	 0.000E+00	 0.000E+00	-1.249E-01	-8.649E-04	-9.074E-02	 1.830E-01	 1.830E-01	 3.461E+00	-3.751E-01	 3.106E+00	 1.771E-01	-1.257E+00	 1.645E+01	-1.670E-01	 4.129E+00	-3.047E-03	 3.268E+00	-4.144E-01	 7.762E+00	-9.070E-01	-1.354E-04	-5.841E-05	 0.000E+00	 0.000E+00
    5.6800	 1.200E+01	 0.000E+00	 0.000E+00	-1.137E-01	 9.265E-04	-8.609E-02	 1.829E-01	 1.830E-01	 3.463E+00	-3.784E-01	 3.109E+00	 1.802E-01	-1.272E+00	 1.645E+01	-1.630E-01	 4.125E+00	-8.132E-03	 3.259E+00	-4.180E-01	 7.753E+00	-9.158E-01	-3.614E-04	-1.558E-04	 0.000E+00	 0.000E+00
    5.7200	 1.200E+01	 0.000E+00	 0.000E+00	-1.013E-01	 2.649E-03	-7.899E-02	 1.828E-01	 1.828E-01	 3.464E+00	-3.817E-01	 3.112E+00	 1.834E-01	-1.287E+00	 1.646E+01	-1.590E-01	 4.125E+00	-1.195E-02	 3.250E+00	-4.224E-01	 7.743E+00	-9.253E-01	-5.309E-04	-2.287E-04	 0.000E+00	 0.000E+00
    5.7600	 1.200E+01	 0.000E+00	 0.000E+00	-8.833E-02	 4.644E-03	-6.992E-02	 1.827E-01	 1.827E-01	 3.466E+00	-3.850E-01	 3.115E+00	 1.864E-01	-1.301E+00	 1.648E+01	-1.551E-01	 4.130E+00	-1.369E-02	 3.240E+00	-4.280E-01	 7.732E+00	-9.360E-01	-6.085E-04	-2.619E-04	 0.000E+00	 0.000E+00
    5.8000	 1.200E+01	 0.000E+00	 0.000E+00	-7.523E-02	 6.745E-03	-5.943E-02	 1.825E-01	 1.825E-01	 3.468E+00	-3.885E-01	 3.119E+00	 1.893E-01	-1.314E+00	 1.650E+01	-1.513E-01	 4.137E+00	-1.420E-02	 3.230E+00	-4.344E-01	 7.721E+00	-9.473E-01	-6.309E-04	-2.713E-04	 0.000E+00	 0.000E+00
    5.8400	 1.200E+01	 0.000E+00	 0.000E+00	-6.070E-02	 8.976E-03	-4.816E-02	 1.823E-01	 1.823E-01	 3.469E+00	-3.918E-01	 3.122E+00	 1.922E-01	-1.327E+00	 1.652E+01	-1.475E-01	 4.143E+00	-1.477E-02	 3.219E+00	-4.407E-01	 7.709E+00	-9.585E-01	-6.564E-04	-2.820E-04	 0.000E+00	 0.000E+00
    5.8800	 1.200E+01	 0.000E+00	 0.000E+00	-4.447E-02	 1.103E-02	-3.689E-02	 1.821E-01	 1.821E-01	 3.468E+00	-3.951E-01	 3.123E+00	 1.952E-01	-1.340E+00	 1.653E+01	-1.435E-01	 4.146E+00	-1.691E-02	 3.207E+00	-4.463E-01	 7.696E+00	-9.688E-01	-7.515E-04	-3.225E-04	 0.000E+00	 0.000E+00
    5.9200	 1.200E+01	 0.000E+00	 0.000E+00	-2.744E-02	 1.338E-02	-2.632E-02	 1.819E-01	 1.819E-01	 3.467E+00	-3.983E-01	 3.124E+00	 1.982E-01	-1.355E+00	 1.653E+01	-1.393E-01	 4.144E+00	-2.021E-02	 3.195E+00	-4.512E-01	 7.682E+00	-9.784E-01	-8.982E-04	-3.849E-04	 0.000E+00	 0.000E+00
    5.9600	 1.200E+01	 0.000E+00	 0.000E+00	-9.796E-03	 1.552E-02	-1.708E-02	 1.816E-01	 1.816E-01	 3.465E+00	-4.013E-01	 3.124E+00	 2.014E-01	-1.370E+00	 1.652E+01	-1.349E-01	 4.136E+00	-2.543E-02	 3.181E+00	-4.549E-01	 7.667E+00	-9.869E-01	-1.130E-03	-4.836E-04	 0.000E+00	 0.000E+00
    6.0000	 1.200E+01	 0.000E+00	 0.000E+00	 6.642E-03	 1.748E-02	-9.678E-03	 1.812E-01	 1.812E-01	 3.463E+00	-4.043E-01	 3.124E+00	 2.046E-01	-1.385E+00	 1.651E+01	-1.305E-01	 4.127E+00	-3.167E-02	 3.168E+00	-4.581E-01	 7.652E+00	-9.946E-01	-1.408E-03	-6.011E-04	-1.104E+01	-3.045E+03
    6.0400	 1.200E+01	 0.000E+00	 0.000E+00	-1.210E+00	-1.150E+01	-6.015E-02	 1.712E+00	 2.416E+00	 4.843E+00	 5.686E+00	 4.491E+00	 7.700E+00	-7.663E+01	 2.514E+01	-2.719E+01	 3.412E+00	-1.324E+02	-2.936E+00	 7.756E+01	 7.778E+00	 7.693E+01	-5.885E+00	-3.350E+01	-1.130E+01	-3.046E+03
    6.0800	 1.200E+01	 0.000E+00	 0.000E+00	 6.153E+00	-3.041E+01	-5.904E-01	 3.299E+00	 3.339E+00	 3.469E+00	 1.156E+01	 3.190E+00	 1.398E+01	-9.771E+01	 1.805E+01	-2.573E+01	 3.231E+00	-1.793E+02	-6.188E+00	 1.059E+02	 7.561E+00	 1.052E+02	-7.967E+00	-6.267E+01	-1.141E+01	-3.046E+03
    6.1200	 1.200E+01	 0.000E+00	 0.000E+00	 3.839E+00	-2.188E+01	-1.282E+00	 5.051E+00	 4.817E+00	 3.134E+00	 7.848E+00	 2.924E+00	 9.288E+00	-5.982E+01	 1.328E+01	-1.538E+01	 1.437E+00	-1.132E+02	-4.059E+00	 6.750E+01	 7.488E+00	 6.689E+01	-5.033E+00	-5.712E+01	-1.159E+01	-3.045E+03
    6.1600	 1.200E+01	 0.000E+00	 0.000E+00	 4.257E-01	-2.080E+01	-2.195E+00	 6.746E+00	 6.776E+00	 3.480E+00	 7.363E+00	 3.213E+00	 9.693E+00	-6.401E+01	 1.351E+01	-1.627E+01	-2.811E-01	-1.171E+02	-6.225E+00	 6.912E+01	 7.265E+00	 6.820E+01	-5.203E+00	-8.307E+01	-1.183E+01	-3.043E+03
    6.2000	 1.200E+01	 0.000E+00	 0.000E+00	 5.780E+00	-2.364E+01	-3.409E+00	 8.408E+00	 8.510E+00	 2.617E+00	 8.589E+00	 2.336E+00	 1.203E+01	-8.284E+01	 9.571E+00	-1.912E+01	-5.518E-01	-1.444E+02	-1.140E+01	 8.461E+01	 6.711E+00	 8.402E+01	-6.418E+00	-1.287E+02	-1.204E+01	-3.040E+03
    6.2400	 1.200E+01	 0.000E+00	 0.000E+00	 5.745E+00	-2.535E+01	-4.784E+00	 1.012E+01	 1.012E+01	 2.731E+00	 9.107E+00	 2.591E+00	 1.183E+01	-8.068E+01	 1.118E+01	-1.994E+01	-1.627E-01	-1.449E+02	-1.553E+01	 8.550E+01	 6.268E+00	 8.579E+01	-6.439E+00	-1.535E+02	-1.225E+01	-3.035E+03
    6.2800	 1.200E+01	 0.000E+00	 0.000E+00	 2.901E+00	-2.518E+01	-6.658E+00	 1.189E+01	 1.187E+01	 3.382E+00	 8.693E+00	 3.410E+00	 1.135E+01	-7.511E+01	 1.619E+01	-1.955E+01	 7.022E-01	-1.374E+02	-1.925E+01	 8.034E+01	 5.548E+00	 8.127E+01	-6.109E+00	-1.708E+02	-1.247E+01	-3.029E+03
    6.3200	 1.200E+01	 0.000E+00	 0.000E+00	 4.620E+00	-2.396E+01	-8.907E+00	 1.370E+01	 1.372E+01	 3.257E+00	 7.955E+00	 3.398E+00	 1.234E+01	-8.209E+01	 1.809E+01	-1.798E+01	 2.096E+00	-1.402E+02	-2.452E+01	 7.855E+01	 4.399E+00	 8.037E+01	-6.229E+00	-2.013E+02	-1.270E+01	-3.020E+03
    6.3600	 1.200E+01	 0.000E+00	 0.000E+00	 4.923E+00	-2.517E+01	-1.115E+01	 1.551E+01	 1.555E+01	 3.417E+00	 8.193E+00	 3.742E+00	 1.320E+01	-8.852E+01	 2.146E+01	-1.856E+01	 3.150E+00	-1.484E+02	-3.204E+01	 8.037E+01	 3.183E+00	 8.445E+01	-6.597E+00	-2.417E+02	-1.294E+01	-3.009E+03
    6.4000	 1.200E+01	 0.000E+00	 0.000E+00	 4.424E+00	-2.778E+01	-1.393E+01	 1.734E+01	 1.736E+01	 3.654E+00	 8.977E+00	 4.262E+00	 1.316E+01	-8.683E+01	 2.480E+01	-2.105E+01	 3.417E+00	-1.532E+02	-4.050E+01	 8.041E+01	 1.569E+00	 8.795E+01	-6.809E+00	-2.785E+02	-1.317E+01	-2.994E+03
    6.4400	 1.200E+01	 0.000E+00	 0.000E+00	 6.481E+00	-2.821E+01	-1.755E+01	 1.918E+01	 1.919E+01	 3.190E+00	 8.912E+00	 4.063E+00	 1.359E+01	-8.845E+01	 2.410E+01	-2.133E+01	 2.989E+00	-1.560E+02	-4.854E+01	 7.622E+01	-7.531E-01	 8.782E+01	-6.933E+00	-3.136E+02	-1.339E+01	-2.976E+03
    6.4800	 1.200E+01	 0.000E+00	 0.000E+00	 7.795E+00	-2.805E+01	-2.144E+01	 2.101E+01	 2.104E+01	 2.675E+00	 8.546E+00	 3.847E+00	 1.463E+01	-9.548E+01	 2.272E+01	-2.038E+01	 1.909E+00	-1.619E+02	-5.716E+01	 7.085E+01	-3.441E+00	 8.783E+01	-7.195E+00	-3.567E+02	-1.361E+01	-2.954E+03
    6.5200	 1.200E+01	 0.000E+00	 0.000E+00	 8.925E+00	-3.001E+01	-2.562E+01	 2.282E+01	 2.285E+01	 2.236E+00	 9.042E+00	 3.839E+00	 1.519E+01	-9.865E+01	 2.189E+01	-2.166E+01	 5.625E-01	-1.701E+02	-6.738E+01	 6.560E+01	-6.394E+00	 9.043E+01	-7.558E+00	-4.070E+02	-1.381E+01	-2.926E+03
    6.5600	 1.200E+01	 0.000E+00	 0.000E+00	 1.170E+01	-3.233E+01	-3.065E+01	 2.458E+01	 2.462E+01	 1.547E+00	 9.750E+00	 3.636E+00	 1.552E+01	-9.961E+01	 2.051E+01	-2.371E+01	-5.590E-01	-1.781E+02	-7.747E+01	 5.791E+01	-9.876E+00	 9.262E+01	-7.916E+00	-4.591E+02	-1.398E+01	-2.894E+03
    6.6000	 1.200E+01	 0.000E+00	 0.000E+00	 1.362E+01	-3.311E+01	-3.645E+01	 2.629E+01	 2.633E+01	 1.002E+00	 9.753E+00	 3.533E+00	 1.633E+01	-1.046E+02	 2.063E+01	-2.377E+01	-1.256E+00	-1.855E+02	-8.508E+01	 4.616E+01	-1.383E+01	 9.174E+01	-8.246E+00	-5.115E+02	-1.413E+01	-2.857E+03
    6.6400	 1.200E+01	 0.000E+00	 0.000E+00	 1.453E+01	-3.399E+01	-4.267E+01	 2.795E+01	 2.798E+01	 7.671E-01	 9.726E+00	 3.777E+00	 1.712E+01	-1.097E+02	 2.322E+01	-2.356E+01	-1.387E+00	-1.928E+02	-9.039E+01	 3.187E+01	-1.805E+01	 8.965E+01	-8.569E+00	-5.650E+02	-1.425E+01	-2.814E+03
    6.6800	 1.200E+01	 0.000E+00	 0.000E+00	 1.662E+01	-3.612E+01	-4.948E+01	 2.953E+01	 2.957E+01	 5.225E-01	 1.031E+01	 4.169E+00	 1.738E+01	-1.108E+02	 2.678E+01	-2.516E+01	-8.601E-01	-2.008E+02	-9.408E+01	 1.635E+01	-2.250E+01	 8.818E+01	-8.925E+00	-6.219E+02	-1.432E+01	-2.765E+03
    6.7200	 1.200E+01	 0.000E+00	 0.000E+00	 1.908E+01	-3.797E+01	-5.717E+01	 3.104E+01	 3.107E+01	 2.343E-01	 1.086E+01	 4.567E+00	 1.755E+01	-1.113E+02	 3.047E+01	-2.674E+01	-9.496E-02	-2.083E+02	-9.389E+01	-7.212E-01	-2.717E+01	 8.519E+01	-9.260E+00	-6.780E+02	-1.436E+01	-2.711E+03
    6.7600	 1.200E+01	 0.000E+00	 0.000E+00	 2.118E+01	-3.874E+01	-6.557E+01	 3.248E+01	 3.250E+01	-7.414E-02	 1.101E+01	 4.962E+00	 1.774E+01	-1.124E+02	 3.356E+01	-2.711E+01	 3.697E-01	-2.135E+02	-8.796E+01	-1.840E+01	-3.186E+01	 7.928E+01	-9.487E+00	-7.265E+02	-1.435E+01	-2.652E+03
    6.8000	 1.200E+01	 0.000E+00	 0.000E+00	 2.374E+01	-3.946E+01	-7.442E+01	 3.385E+01	 3.387E+01	-5.657E-01	 1.125E+01	 5.180E+00	 1.757E+01	-1.110E+02	 3.465E+01	-2.768E+01	 1.886E-01	-2.166E+02	-7.743E+01	-3.468E+01	-3.630E+01	 7.206E+01	-9.626E+00	-7.681E+02	-1.430E+01	-2.587E+03
    6.8400	 1.200E+01	 0.000E+00	 0.000E+00	 2.708E+01	-4.014E+01	-8.373E+01	 3.517E+01	 3.518E+01	-1.317E+00	 1.164E+01	 5.110E+00	 1.707E+01	-1.073E+02	 3.315E+01	-2.869E+01	-7.824E-01	-2.184E+02	-6.318E+01	-4.810E+01	-4.035E+01	 6.415E+01	-9.707E+00	-8.046E+02	-1.419E+01	-2.515E+03
    6.8800	 1.200E+01	 0.000E+00	 0.000E+00	 3.020E+01	-3.984E+01	-9.355E+01	 3.645E+01	 3.645E+01	-2.224E+00	 1.172E+01	 4.778E+00	 1.651E+01	-1.036E+02	 2.954E+01	-2.871E+01	-2.359E+00	-2.173E+02	-4.494E+01	-5.731E+01	-4.391E+01	 5.443E+01	-9.657E+00	-8.293E+02	-1.403E+01	-2.437E+03
    6.9200	 1.200E+01	 0.000E+00	 0.000E+00	 3.310E+01	-3.848E+01	-1.036E+02	 3.772E+01	 3.770E+01	-3.138E+00	 1.145E+01	 4.299E+00	 1.584E+01	-9.941E+01	 2.480E+01	-2.766E+01	-4.132E+00	-2.122E+02	-2.427E+01	-6.100E+01	-4.675E+01	 4.328E+01	-9.429E+00	-8.376E+02	-1.381E+01	-2.350E+03
    6.9600	 1.200E+01	 0.000E+00	 0.000E+00	 3.553E+01	-3.676E+01	-1.136E+02	 3.901E+01	 3.897E+01	-3.901E+00	 1.113E+01	 3.847E+00	 1.487E+01	-9.328E+01	 2.031E+01	-2.655E+01	-5.519E+00	-2.038E+02	-3.974E+00	-5.898E+01	-4.867E+01	 3.221E+01	-9.056E+00	-8.315E+02	-1.351E+01	-2.251E+03
    7.0000	 1.200E+01	 0.000E+00	 0.000E+00	 3.741E+01	-3.476E+01	-1.237E+02	 4.032E+01	 4.026E+01	-4.390E+00	 1.076E+01	 3.529E+00	 1.366E+01	-8.568E+01	 1.715E+01	-2.531E+01	-6.057E+00	-1.924E+02	 1.391E+01	-5.175E+01	-4.958E+01	 2.187E+01	-8.553E+00	-8.114E+02	-1.312E+01	-2.137E+03
    7.0400	 1.200E+01	 0.000E+00	 0.000E+00	 3.836E+01	-3.241E+01	-1.339E+02	 4.167E+01	 4.159E+01	-4.497E+00	 1.016E+01	 3.389E+00	 1.230E+01	-7.739E+01	 1.580E+01	-2.308E+01	-5.624E+00	-1.770E+02	 2.794E+01	-4.020E+01	-4.943E+01	 1.239E+01	-7.867E+00	-7.710E+02	-1.259E+01	-2.005E+03
    7.0800	 1.200E+01	 0.000E+00	 0.000E+00	 3.836E+01	-2.929E+01	-1.439E+02	 4.307E+01	 4.298E+01	-4.198E+00	 9.343E+00	 3.427E+00	 1.071E+01	-6.794E+01	 1.624E+01	-2.046E+01	-4.379E+00	-1.578E+02	 3.664E+01	-2.634E+01	-4.814E+01	 4.642E+00	-7.012E+00	-7.101E+02	-1.191E+01	-1.850E+03
    7.1200	 1.200E+01	 0.000E+00	 0.000E+00	 3.780E+01	-2.627E+01	-1.535E+02	 4.449E+01	 4.440E+01	-3.603E+00	 8.782E+00	 3.585E+00	 8.736E+00	-5.606E+01	 1.789E+01	-1.896E+01	-2.550E+00	-1.380E+02	 3.941E+01	-1.302E+01	-4.567E+01	-1.131E-01	-6.134E+00	-6.417E+02	-1.103E+01	-1.671E+03
    7.1600	 1.200E+01	 0.000E+00	 0.000E+00	 3.694E+01	-2.314E+01	-1.627E+02	 4.588E+01	 4.579E+01	-2.816E+00	 8.376E+00	 3.739E+00	 6.524E+00	-4.285E+01	 2.004E+01	-1.804E+01	-3.738E-01	-1.180E+02	 3.725E+01	-1.978E+00	-4.204E+01	-2.145E+00	-5.245E+00	-5.658E+02	-9.981E+00	-1.473E+03
    7.2000	 1.200E+01	 0.000E+00	 0.000E+00	 3.558E+01	-1.987E+01	-1.710E+02	 4.721E+01	 4.711E+01	-1.853E+00	 8.014E+00	 3.910E+00	 4.288E+00	-2.982E+01	 2.256E+01	-1.703E+01	 2.044E+00	-9.821E+01	 3.165E+01	 5.701E+00	-3.727E+01	-2.025E+00	-4.365E+00	-4.846E+02	-8.779E+00	-1.263E+03
    7.2400	 1.200E+01	 0.000E+00	 0.000E+00	 3.368E+01	-1.692E+01	-1.785E+02	 4.843E+01	 4.833E+01	-7.139E-01	 7.600E+00	 4.060E+00	 2.170E+00	-1.757E+01	 2.550E+01	-1.531E+01	 4.627E+00	-7.825E+01	 2.431E+01	 9.478E+00	-3.148E+01	-3.145E-01	-3.478E+00	-3.960E+02	-7.481E+00	-1.052E+03
    7.2800	 1.200E+01	 0.000E+00	 0.000E+00	 3.116E+01	-1.414E+01	-1.850E+02	 4.952E+01	 4.943E+01	 5.914E-01	 7.018E+00	 4.190E+00	 3.121E-01	-6.967E+00	 2.904E+01	-1.289E+01	 7.312E+00	-5.852E+01	 1.695E+01	 9.580E+00	-2.488E+01	 2.325E+00	-2.601E+00	-3.029E+02	-6.147E+00	-8.466E+02
    7.3200	 1.200E+01	 0.000E+00	 0.000E+00	 2.846E+01	-1.148E+01	-1.904E+02	 5.046E+01	 5.038E+01	 1.984E+00	 6.476E+00	 4.387E+00	-1.317E+00	 2.372E+00	 3.329E+01	-1.103E+01	 1.014E+01	-4.136E+01	 1.101E+01	 6.687E+00	-1.777E+01	 5.498E+00	-1.838E+00	-2.182E+02	-4.849E+00	-6.562E+02
    7.3600	 1.200E+01	 0.000E+00	 0.000E+00	 2.547E+01	-9.265E+00	-1.950E+02	 5.123E+01	 5.117E+01	 3.446E+00	 6.142E+00	 4.662E+00	-2.712E+00	 1.069E+01	 3.803E+01	-1.031E+01	 1.283E+01	-2.829E+01	 7.285E+00	 1.958E+00	-1.042E+01	 8.678E+00	-1.257E+00	-1.516E+02	-3.676E+00	-4.908E+02
    7.4000	 1.200E+01	 0.000E+00	 0.000E+00	 2.216E+01	-7.317E+00	-1.990E+02	 5.184E+01	 5.179E+01	 4.874E+00	 5.781E+00	 4.872E+00	-3.648E+00	 1.624E+01	 4.239E+01	-9.764E+00	 1.489E+01	-1.875E+01	 5.712E+00	-3.058E+00	-3.281E+00	 1.092E+01	-8.333E-01	-1.017E+02	-2.689E+00	-3.561E+02
    7.4400	 1.200E+01	 0.000E+00	 0.000E+00	 1.939E+01	-5.274E+00	-2.024E+02	 5.230E+01	 5.226E+01	 6.002E+00	 5.192E+00	 4.933E+00	-4.003E+00	 1.811E+01	 4.504E+01	-8.749E+00	 1.620E+01	-1.180E+01	 5.745E+00	-7.402E+00	 3.283E+00	 1.172E+01	-5.243E-01	-6.456E+01	-1.906E+00	-2.518E+02
    7.4800	 1.200E+01	 0.000E+00	 0.000E+00	 1.768E+01	-3.362E+00	-2.054E+02	 5.263E+01	 5.261E+01	 6.663E+00	 4.503E+00	 4.776E+00	-3.991E+00	 1.802E+01	 4.501E+01	-7.562E+00	 1.673E+01	-6.600E+00	 7.231E+00	-1.085E+01	 9.177E+00	 1.154E+01	-2.933E-01	-3.636E+01	-1.306E+00	-1.733E+02
    7.5200	 1.200E+01	 0.000E+00	 0.000E+00	 1.701E+01	-1.801E+00	-2.080E+02	 5.288E+01	 5.286E+01	 6.785E+00	 3.836E+00	 4.276E+00	-3.783E+00	 1.720E+01	 4.199E+01	-6.475E+00	 1.645E+01	-2.793E+00	 9.948E+00	-1.310E+01	 1.432E+01	 1.082E+01	-1.242E-01	-1.546E+01	-8.578E-01	-1.154E+02
    7.5600	 1.200E+01	 0.000E+00	 0.000E+00	 1.666E+01	-4.985E-01	-2.103E+02	 5.306E+01	 5.305E+01	 6.588E+00	 3.115E+00	 3.549E+00	-3.376E+00	 1.531E+01	 3.710E+01	-5.300E+00	 1.529E+01	-3.981E-02	 1.323E+01	-1.389E+01	 1.859E+01	 9.545E+00	-1.769E-03	-2.212E-01	-5.285E-01	-7.335E+01
    7.6000	 1.200E+01	 0.000E+00	 0.000E+00	 1.631E+01	 5.007E-01	-2.121E+02	 5.319E+01	 5.318E+01	 6.235E+00	 2.342E+00	 2.724E+00	-2.861E+00	 1.283E+01	 3.171E+01	-4.002E+00	 1.358E+01	 2.320E+00	 1.650E+01	-1.308E+01	 2.180E+01	 7.927E+00	 1.031E-01	 1.292E+01	-2.872E-01	-4.272E+01
    7.6400	 1.200E+01	 0.000E+00	 0.000E+00	 1.674E+01	 1.136E+00	-2.134E+02	 5.330E+01	 5.328E+01	 5.707E+00	 1.574E+00	 1.921E+00	-2.417E+00	 1.113E+01	 2.642E+01	-2.812E+00	 1.190E+01	 5.270E+00	 1.930E+01	-1.070E+01	 2.395E+01	 6.331E+00	 2.342E-01	 2.941E+01	-9.670E-02	-1.868E+01
    7.6800	 1.200E+01	 0.000E+00	 0.000E+00	 1.794E+01	 1.619E+00	-2.141E+02	 5.339E+01	 5.338E+01	 5.157E+00	 7.233E-01	 1.181E+00	-2.023E+00	 9.834E+00	 2.210E+01	-1.557E+00	 1.054E+01	 9.133E+00	 2.101E+01	-7.358E+00	 2.515E+01	 4.554E+00	 4.059E-01	 5.105E+01	 7.925E-02	 3.441E+00
    7.7200	 1.200E+01	 0.000E+00	 0.000E+00	 1.832E+01	 1.918E+00	-2.144E+02	 5.349E+01	 5.347E+01	 4.958E+00	-2.428E-01	 1.011E+00	-1.604E+00	 8.461E+00	 2.091E+01	-2.213E-01	 9.782E+00	 1.355E+01	 2.115E+01	-3.744E+00	 2.521E+01	 2.413E+00	 6.020E-01	 7.585E+01	 2.596E-01	 2.601E+01
    7.7600	 1.200E+01	 0.000E+00	 0.000E+00	 1.925E+01	 2.284E+00	-2.142E+02	 5.360E+01	 5.358E+01	 4.894E+00	-1.353E+00	 1.218E+00	-1.123E+00	 6.855E+00	 2.194E+01	 1.297E+00	 9.896E+00	 1.863E+01	 1.993E+01	-7.060E-01	 2.425E+01	-1.864E-01	 8.281E-01	 1.045E+02	 4.549E-01	 5.034E+01
    7.8000	 1.200E+01	 0.000E+00	 0.000E+00	 2.105E+01	 2.773E+00	-2.136E+02	 5.371E+01	 5.369E+01	 4.850E+00	-2.548E+00	 1.614E+00	-5.441E-01	 4.689E+00	 2.437E+01	 2.847E+00	 1.075E+01	 2.351E+01	 1.792E+01	 1.224E+00	 2.245E+01	-3.219E+00	 1.045E+00	 1.322E+02	 6.637E-01	 7.624E+01
    7.8400	 1.200E+01	 0.000E+00	 0.000E+00	 2.251E+01	 3.195E+00	-2.130E+02	 5.381E+01	 5.379E+01	 4.969E+00	-3.739E+00	 2.232E+00	 9.657E-02	 2.101E+00	 2.835E+01	 4.302E+00	 1.189E+01	 2.770E+01	 1.574E+01	 2.001E+00	 1.988E+01	-6.440E+00	 1.231E+00	 1.561E+02	 8.701E-01	 1.017E+02
    7.8800	 1.200E+01	 0.000E+00	 0.000E+00	 2.401E+01	 3.454E+00	-2.124E+02	 5.391E+01	 5.389E+01	 5.126E+00	-4.824E+00	 2.922E+00	 7.072E-01	-3.433E-01	 3.282E+01	 5.538E+00	 1.304E+01	 3.120E+01	 1.380E+01	 1.875E+00	 1.664E+01	-9.500E+00	 1.387E+00	 1.761E+02	 1.062E+00	 1.253E+02
    7.9200	 1.200E+01	 0.000E+00	 0.000E+00	 2.599E+01	 3.582E+00	-2.119E+02	 5.399E+01	 5.398E+01	 5.161E+00	-5.725E+00	 3.562E+00	 1.264E+00	-2.666E+00	 3.672E+01	 6.468E+00	 1.407E+01	 3.359E+01	 1.239E+01	 1.183E+00	 1.287E+01	-1.214E+01	 1.493E+00	 1.899E+02	 1.228E+00	 1.456E+02
    7.9600	 1.200E+01	 0.000E+00	 0.000E+00	 2.795E+01	 3.566E+00	-2.117E+02	 5.405E+01	 5.405E+01	 5.087E+00	-6.396E+00	 4.127E+00	 1.728E+00	-4.762E+00	 3.973E+01	 7.102E+00	 1.478E+01	 3.484E+01	 1.160E+01	 3.404E-01	 8.835E+00	-1.415E+01	 1.548E+00	 1.972E+02	 1.357E+00	 1.613E+02
    8.0000	 1.200E+01	 0.000E+00	 0.000E+00	 2.971E+01	 3.323E+00	-2.117E+02	 5.409E+01	 5.409E+01	 4.908E+00	-6.764E+00	 4.535E+00	 1.997E+00	-5.968E+00	 4.157E+01	 7.352E+00	 1.500E+01	 3.528E+01	 1.123E+01	-3.179E-01	 4.748E+00	-1.526E+01	 1.568E+00	 1.999E+02	 1.445E+00	 1.720E+02
    8.0400	 1.200E+01	 0.000E+00	 0.000E+00	 3.129E+01	 2.830E+00	-2.119E+02	 5.412E+01	 5.412E+01	 4.642E+00	-6.812E+00	 4.757E+00	 2.039E+00	-6.067E+00	 4.230E+01	 7.212E+00	 1.473E+01	 3.510E+01	 1.104E+01	-7.279E-01	 7.607E-01	-1.541E+01	 1.560E+00	 1.989E+02	 1.497E+00	 1.783E+02
    8.0800	 1.200E+01	 0.000E+00	 0.000E+00	 3.242E+01	 2.227E+00	-2.123E+02	 5.413E+01	 5.413E+01	 4.326E+00	-6.589E+00	 4.866E+00	 1.873E+00	-5.224E+00	 4.234E+01	 6.858E+00	 1.421E+01	 3.462E+01	 1.098E+01	-9.648E-01	-3.023E+00	-1.471E+01	 1.539E+00	 1.963E+02	 1.520E+00	 1.810E+02
    8.1200	 1.200E+01	 0.000E+00	 0.000E+00	 3.333E+01	 1.694E+00	-2.129E+02	 5.413E+01	 5.413E+01	 4.019E+00	-6.150E+00	 4.950E+00	 1.490E+00	-3.415E+00	 4.212E+01	 6.364E+00	 1.369E+01	 3.427E+01	 1.099E+01	-1.031E+00	-6.446E+00	-1.329E+01	 1.523E+00	 1.942E+02	 1.524E+00	 1.816E+02
    8.1600	 1.200E+01	 0.000E+00	 0.000E+00	 3.404E+01	 1.250E+00	-2.135E+02	 5.413E+01	 5.413E+01	 3.746E+00	-5.505E+00	 5.024E+00	 8.924E-01	-5.402E-01	 4.184E+01	 5.665E+00	 1.334E+01	 3.407E+01	 1.094E+01	-9.366E-01	-9.325E+00	-1.119E+01	 1.514E+00	 1.931E+02	 1.521E+00	 1.812E+02
    8.2000	 1.200E+01	 0.000E+00	 0.000E+00	 3.442E+01	 9.117E-01	-2.141E+02	 5.413E+01	 5.413E+01	 3.565E+00	-4.693E+00	 5.098E+00	 1.080E-01	 3.297E+00	 4.171E+01	 4.790E+00	 1.313E+01	 3.407E+01	 1.078E+01	-7.760E-01	-1.156E+01	-8.541E+00	 1.514E+00	 1.931E+02	 1.518E+00	 1.809E+02
    8.2400	 1.200E+01	 0.000E+00	 0.000E+00	 3.437E+01	 6.977E-01	-2.147E+02	 5.413E+01	 5.413E+01	 3.502E+00	-3.776E+00	 5.170E+00	-8.257E-01	 7.906E+00	 4.181E+01	 3.814E+00	 1.300E+01	 3.438E+01	 1.053E+01	-6.498E-01	-1.312E+01	-5.484E+00	 1.528E+00	 1.949E+02	 1.520E+00	 1.810E+02
    8.2800	 1.200E+01	 0.000E+00	 0.000E+00	 3.407E+01	 6.132E-01	-2.153E+02	 5.414E+01	 5.413E+01	 3.500E+00	-2.784E+00	 5.205E+00	-1.867E+00	 1.309E+01	 4.191E+01	 2.782E+00	 1.293E+01	 3.494E+01	 1.030E+01	-6.395E-01	-1.401E+01	-2.148E+00	 1.553E+00	 1.981E+02	 1.529E+00	 1.822E+02
    8.3200	 1.200E+01	 0.000E+00	 0.000E+00	 3.353E+01	 6.285E-01	-2.158E+02	 5.415E+01	 5.414E+01	 3.507E+00	-1.768E+00	 5.200E+00	-2.953E+00	 1.850E+01	 4.183E+01	 1.717E+00	 1.293E+01	 3.560E+01	 1.019E+01	-7.279E-01	-1.426E+01	 1.300E+00	 1.582E+00	 2.019E+02	 1.547E+00	 1.844E+02
    8.3600	 1.200E+01	 0.000E+00	 0.000E+00	 3.298E+01	 7.789E-01	-2.162E+02	 5.416E+01	 5.416E+01	 3.533E+00	-8.000E-01	 5.169E+00	-4.007E+00	 2.368E+01	 4.157E+01	 7.223E-01	 1.297E+01	 3.631E+01	 1.024E+01	-7.872E-01	-1.387E+01	 4.638E+00	 1.614E+00	 2.059E+02	 1.571E+00	 1.872E+02
    8.4000	 1.200E+01	 0.000E+00	 0.000E+00	 3.262E+01	 1.049E+00	-2.165E+02	 5.417E+01	 5.417E+01	 3.568E+00	 6.623E-02	 5.106E+00	-4.968E+00	 2.837E+01	 4.114E+01	-1.666E-01	 1.301E+01	 3.701E+01	 1.038E+01	-7.364E-01	-1.285E+01	 7.693E+00	 1.645E+00	 2.100E+02	 1.598E+00	 1.905E+02
    8.4400	 1.200E+01	 0.000E+00	 0.000E+00	 3.194E+01	 1.388E+00	-2.168E+02	 5.419E+01	 5.418E+01	 3.711E+00	 7.905E-01	 5.049E+00	-5.790E+00	 3.236E+01	 4.098E+01	-8.973E-01	 1.298E+01	 3.768E+01	 1.055E+01	-5.298E-01	-1.126E+01	 1.031E+01	 1.675E+00	 2.138E+02	 1.626E+00	 1.939E+02
    8.4800	 1.200E+01	 0.000E+00	 0.000E+00	 3.112E+01	 1.753E+00	-2.169E+02	 5.420E+01	 5.420E+01	 3.923E+00	 1.354E+00	 4.994E+00	-6.447E+00	 3.557E+01	 4.107E+01	-1.488E+00	 1.298E+01	 3.828E+01	 1.072E+01	-1.396E-01	-9.251E+00	 1.239E+01	 1.701E+00	 2.173E+02	 1.655E+00	 1.974E+02
    8.5200	 1.200E+01	 0.000E+00	 0.000E+00	 3.035E+01	 2.146E+00	-2.171E+02	 5.421E+01	 5.421E+01	 4.165E+00	 1.729E+00	 4.952E+00	-6.894E+00	 3.773E+01	 4.138E+01	-1.908E+00	 1.312E+01	 3.869E+01	 1.077E+01	 4.569E-01	-6.968E+00	 1.384E+01	 1.719E+00	 2.196E+02	 1.680E+00	 2.005E+02
    8.5600	 1.200E+01	 0.000E+00	 0.000E+00	 2.961E+01	 2.565E+00	-2.173E+02	 5.422E+01	 5.422E+01	 4.423E+00	 1.889E+00	 4.944E+00	-7.097E+00	 3.862E+01	 4.186E+01	-2.092E+00	 1.339E+01	 3.887E+01	 1.056E+01	 1.174E+00	-4.508E+00	 1.454E+01	 1.728E+00	 2.207E+02	 1.700E+00	 2.029E+02
    8.6000	 1.200E+01	 0.000E+00	 0.000E+00	 2.894E+01	 2.944E+00	-2.175E+02	 5.423E+01	 5.423E+01	 4.668E+00	 1.846E+00	 4.928E+00	-7.066E+00	 3.833E+01	 4.228E+01	-2.043E+00	 1.370E+01	 3.886E+01	 1.006E+01	 1.850E+00	-1.966E+00	 1.452E+01	 1.727E+00	 2.207E+02	 1.713E+00	 2.044E+02
    8.6400	 1.200E+01	 0.000E+00	 0.000E+00	 2.833E+01	 3.188E+00	-2.177E+02	 5.423E+01	 5.423E+01	 4.876E+00	 1.645E+00	 4.878E+00	-6.852E+00	 3.717E+01	 4.248E+01	-1.848E+00	 1.395E+01	 3.868E+01	 9.396E+00	 2.388E+00	 5.321E-01	 1.392E+01	 1.719E+00	 2.197E+02	 1.718E+00	 2.050E+02
    8.6800	 1.200E+01	 0.000E+00	 0.000E+00	 2.782E+01	 3.271E+00	-2.179E+02	 5.423E+01	 5.423E+01	 5.029E+00	 1.299E+00	 4.773E+00	-6.468E+00	 3.522E+01	 4.235E+01	-1.494E+00	 1.406E+01	 3.836E+01	 8.606E+00	 2.747E+00	 2.867E+00	 1.276E+01	 1.705E+00	 2.178E+02	 1.715E+00	 2.047E+02
    8.7200	 1.200E+01	 0.000E+00	 0.000E+00	 2.746E+01	 3.245E+00	-2.180E+02	 5.422E+01	 5.422E+01	 5.110E+00	 8.033E-01	 4.629E+00	-5.918E+00	 3.247E+01	 4.187E+01	-9.459E-01	 1.403E+01	 3.799E+01	 7.733E+00	 2.873E+00	 4.946E+00	 1.110E+01	 1.688E+00	 2.157E+02	 1.707E+00	 2.037E+02
    8.7600	 1.200E+01	 0.000E+00	 0.000E+00	 2.730E+01	 3.137E+00	-2.180E+02	 5.422E+01	 5.422E+01	 5.133E+00	 1.748E-01	 4.474E+00	-5.235E+00	 2.908E+01	 4.116E+01	-2.468E-01	 1.392E+01	 3.762E+01	 6.876E+00	 2.733E+00	 6.704E+00	 8.993E+00	 1.672E+00	 2.136E+02	 1.694E+00	 2.022E+02
    8.8000	 1.200E+01	 0.000E+00	 0.000E+00	 2.730E+01	 2.991E+00	-2.179E+02	 5.421E+01	 5.421E+01	 5.106E+00	-5.706E-01	 4.325E+00	-4.435E+00	 2.516E+01	 4.034E+01	 5.748E-01	 1.379E+01	 3.728E+01	 6.146E+00	 2.314E+00	 8.099E+00	 6.514E+00	 1.657E+00	 2.116E+02	 1.680E+00	 2.005E+02
    8.8400	 1.200E+01	 0.000E+00	 0.000E+00	 2.738E+01	 2.877E+00	-2.177E+02	 5.420E+01	 5.420E+01	 5.062E+00	-1.428E+00	 4.212E+00	-3.541E+00	 2.078E+01	 3.962E+01	 1.530E+00	 1.368E+01	 3.704E+01	 5.647E+00	 1.634E+00	 9.081E+00	 3.707E+00	 1.646E+00	 2.103E+02	 1.667E+00	 1.988E+02
    8.8800	 1.200E+01	 0.000E+00	 0.000E+00	 2.752E+01	 2.845E+00	-2.174E+02	 5.420E+01	 5.420E+01	 5.009E+00	-2.371E+00	 4.134E+00	-2.573E+00	 1.608E+01	 3.908E+01	 2.598E+00	 1.363E+01	 3.693E+01	 5.498E+00	 7.764E-01	 9.617E+00	 6.602E-01	 1.642E+00	 2.096E+02	 1.656E+00	 1.975E+02
    8.9200	 1.200E+01	 0.000E+00	 0.000E+00	 2.773E+01	 2.911E+00	-2.170E+02	 5.419E+01	 5.419E+01	 4.948E+00	-3.359E+00	 4.089E+00	-1.576E+00	 1.128E+01	 3.872E+01	 3.713E+00	 1.366E+01	 3.695E+01	 5.774E+00	-9.343E-02	 9.684E+00	-2.495E+00	 1.642E+00	 2.097E+02	 1.649E+00	 1.967E+02
    8.9600	 1.200E+01	 0.000E+00	 0.000E+00	 2.797E+01	 3.075E+00	-2.166E+02	 5.419E+01	 5.419E+01	 4.877E+00	-4.343E+00	 4.069E+00	-5.991E-01	 6.572E+00	 3.852E+01	 4.824E+00	 1.373E+01	 3.705E+01	 6.469E+00	-7.785E-01	 9.281E+00	-5.606E+00	 1.647E+00	 2.102E+02	 1.646E+00	 1.963E+02