
FAST Summary File

Predictions were generated on 01-Jul-2014 at 22:32:17 using FAST (v8.08.00c-bjj, 30-June-2014), compiled for 32-bit systems using single precision
  compiled with
    NWTC Subroutine Library (v2.03.03b-bjj, 30-June-2014)
    ElastoDyn (v1.01.06b-bjj, 30-June-2014)
    AeroDyn (v14.02.01c-bjj, 30-June-2014)
    InflowWind (v2.00.01b-bjj, 30-June-2014)
    ServoDyn (v1.01.02a-bjj, 30-June-2014)
    HydroDyn (unknown version, unknown date) [not called]
    SubDyn (unknown version, unknown date) [not called]
    MAP (unknown version, unknown date) [not called]
    FEAMooring (unknown version, unknown date) [not called]
    IceFloe (unknown version, unknown date) [not called]
    IceDyn (unknown version, unknown date) [not called]


Modeling a land-based turbine
Description from the FAST input file: 
  FAST Certification Test #10: UAE Phase VI (upwind) with no DOFs in a ramped wind.

Interpolation order for input/output time histories: 2 (quadratic)
Number of correction iterations:  0


   Requested Time Steps  
  -------------------------------------------------
  Component          Time Step (s)    Subcycles (-)
  -----------------  ---------------  -------------
  FAST (glue code)    4.000E-03
  ElastoDyn           4.000E-03              1
  AeroDyn             4.000E-03              1
  ServoDyn            4.000E-03              1
  FAST output files   1.000E-01             25^-1


   Requested Channels in FAST Output File(s)  
  --------------------------------------------
  Number  Name        Units       Generated by
  ------  ----------  ----------  ------------
       1  Time        (s)         FAST
       2  WindVxi     (m/s)       InflowWind
       3  WindVyi     (m/s)       InflowWind
       4  WindVzi     (m/s)       InflowWind
       5  RootFxc1    (kN)        ElastoDyn
       6  RootFyc1    (kN)        ElastoDyn
       7  RootFzc1    (kN)        ElastoDyn
       8  RootFxc2    (kN)        ElastoDyn
       9  RootFyc2    (kN)        ElastoDyn
      10  RootFzc2    (kN)        ElastoDyn
      11  RootMOoP1   (kN·m)      ElastoDyn
      12  RootMIP1    (kN·m)      ElastoDyn
      13  RootMzc1    (kN·m)      ElastoDyn
      14  RotTorq     (kN·m)      ElastoDyn
      15  RotThrust   (kN)        ElastoDyn
      16  RotPwr      (kW)        ElastoDyn
      17  LSSGagMya   (kN·m)      ElastoDyn
      18  LSSGagMza   (kN·m)      ElastoDyn
      19  YawBrMxp    (kN·m)      ElastoDyn
      20  YawBrMyp    (kN·m)      ElastoDyn
      21  GenPwr      (kW)        ServoDyn
