
Predictions were generated on 13-Apr-2016 at 14:08:34 using FAST (v8.15.00a-bjj, 12-Apr-2016), compiled as a 32-bit application using single precision
 linked with  NWTC Subroutine Library (v2.08.00, 5-Apr-2016); ElastoDyn (v1.03.02a-bjj, 8-Apr-2016); InflowWind (v3.02.00a-bjj, 11-Apr-2016); AeroDyn (v15.02.03, 12-Apr-2016); ServoDyn (v1.05.00a-bjj, 11-Mar-2016)

Description from the FAST input file: FAST Certification Test #10: UAE Phase VI (upwind) with no DOFs in a ramped wind.

Time      	Wind1VelX 	Wind1VelY 	Wind1VelZ 	RootFxc1  	RootFyc1  	RootFzc1  	RootFxc2  	RootFyc2  	RootFzc2  	RootMOoP1 	RootMIP1  	RootMzc1  	RotTorq   	RotThrust 	RotPwr    	LSSGagMya 	LSSGagMza 	YawBrMxp  	YawBrMyp  	RtAeroCp  	RtAeroCq  	RtAeroCt  	GenPwr    
(s)       	(m/s)     	(m/s)     	(m/s)     	(kN)      	(kN)      	(kN)      	(kN)      	(kN)      	(kN)      	(kN·m)    	(kN·m)    	(kN·m)    	(kN·m)    	(kN)      	(kW)      	(kN·m)    	(kN·m)    	(kN·m)    	(kN·m)    	(-)       	(-)       	(-)       	(kW)      
    5.0000	 5.000E+00	 0.000E+00	 0.000E+00	 3.629E-01	-1.565E-02	 6.857E+00	 3.629E-01	-7.863E-02	 8.058E+00	 1.123E+00	 7.102E-02	-1.662E-02	 2.906E-01	 7.258E-01	 2.188E+00	-1.703E+00	-8.924E-02	 2.906E-01	-7.461E+00	 3.536E-01	 4.669E-02	 5.865E-01	 3.407E+00
    5.1000	 5.100E+00	 0.000E+00	 0.000E+00	 3.773E-01	-4.386E-01	 6.998E+00	 3.773E-01	 3.371E-01	 7.918E+00	 1.164E+00	 7.980E-01	-1.686E-02	 3.116E-01	 7.546E-01	 2.346E+00	-1.304E+00	 1.099E+00	 3.116E-01	-7.441E+00	 3.573E-01	 4.813E-02	 5.861E-01	 3.407E+00
    5.2000	 5.200E+00	 0.000E+00	 0.000E+00	 3.919E-01	-6.520E-01	 7.387E+00	 3.919E-01	 5.430E-01	 7.528E+00	 1.205E+00	 1.166E+00	-1.712E-02	 3.335E-01	 7.837E-01	 2.511E+00	-1.995E-01	 1.693E+00	 3.335E-01	-7.421E+00	 3.608E-01	 4.955E-02	 5.855E-01	 3.407E+00
    5.3000	 5.300E+00	 0.000E+00	 0.000E+00	 4.066E-01	-5.425E-01	 7.815E+00	 4.066E-01	 4.258E-01	 7.100E+00	 1.247E+00	 9.819E-01	-1.740E-02	 3.563E-01	 8.133E-01	 2.683E+00	 1.012E+00	 1.372E+00	 3.563E-01	-7.400E+00	 3.641E-01	 5.096E-02	 5.849E-01	 3.407E+00
    5.4000	 5.400E+00	 0.000E+00	 0.000E+00	 4.216E-01	-1.714E-01	 8.049E+00	 4.216E-01	 4.661E-02	 6.866E+00	 1.290E+00	 3.497E-01	-1.767E-02	 3.800E-01	 8.432E-01	 2.861E+00	 1.677E+00	 3.090E-01	 3.800E-01	-7.380E+00	 3.671E-01	 5.235E-02	 5.842E-01	 3.407E+00
    5.5000	 5.500E+00	 0.000E+00	 0.000E+00	 4.367E-01	 2.584E-01	 7.964E+00	 4.367E-01	-3.916E-01	 6.951E+00	 1.333E+00	-3.830E-01	-1.795E-02	 4.046E-01	 8.734E-01	 3.046E+00	 1.435E+00	-9.212E-01	 4.046E-01	-7.359E+00	 3.699E-01	 5.373E-02	 5.833E-01	 3.407E+00
    5.6000	 5.600E+00	 0.000E+00	 0.000E+00	 4.519E-01	 5.124E-01	 7.605E+00	 4.519E-01	-6.543E-01	 7.310E+00	 1.377E+00	-8.145E-01	-1.821E-02	 4.300E-01	 9.039E-01	 3.237E+00	 4.171E-01	-1.653E+00	 4.300E-01	-7.338E+00	 3.724E-01	 5.508E-02	 5.823E-01	 3.407E+00
    5.7000	 5.700E+00	 0.000E+00	 0.000E+00	 4.673E-01	 4.509E-01	 7.166E+00	 4.673E-01	-6.017E-01	 7.749E+00	 1.420E+00	-7.057E-01	-1.845E-02	 4.562E-01	 9.345E-01	 3.435E+00	-8.262E-01	-1.492E+00	 4.562E-01	-7.316E+00	 3.747E-01	 5.640E-02	 5.811E-01	 3.407E+00
    5.8000	 5.800E+00	 0.000E+00	 0.000E+00	 4.826E-01	 1.047E-01	 6.885E+00	 4.826E-01	-2.648E-01	 8.030E+00	 1.464E+00	-1.093E-01	-1.866E-02	 4.831E-01	 9.653E-01	 3.638E+00	-1.623E+00	-5.235E-01	 4.831E-01	-7.295E+00	 3.767E-01	 5.769E-02	 5.797E-01	 3.407E+00
    5.9000	 5.900E+00	 0.000E+00	 0.000E+00	 4.980E-01	-3.415E-01	 6.914E+00	 4.980E-01	 1.719E-01	 8.002E+00	 1.508E+00	 6.584E-01	-1.881E-02	 5.108E-01	 9.961E-01	 3.846E+00	-1.542E+00	 7.276E-01	 5.108E-01	-7.274E+00	 3.783E-01	 5.895E-02	 5.781E-01	 3.407E+00
    6.0000	 6.000E+00	 0.000E+00	 0.000E+00	 5.134E-01	-6.490E-01	 7.236E+00	 5.134E-01	 4.697E-01	 7.679E+00	 1.551E+00	 1.189E+00	-1.890E-02	 5.391E-01	 1.027E+00	 4.059E+00	-6.277E-01	 1.585E+00	 5.391E-01	-7.253E+00	 3.797E-01	 6.016E-02	 5.762E-01	 3.407E+00
    6.1000	 6.100E+00	 0.000E+00	 0.000E+00	 5.287E-01	-6.542E-01	 7.679E+00	 5.287E-01	 4.650E-01	 7.237E+00	 1.595E+00	 1.201E+00	-1.892E-02	 5.681E-01	 1.057E+00	 4.277E+00	 6.261E-01	 1.586E+00	 5.681E-01	-7.231E+00	 3.807E-01	 6.133E-02	 5.741E-01	 3.407E+00
    6.2000	 6.200E+00	 0.000E+00	 0.000E+00	 5.439E-01	-3.570E-01	 8.001E+00	 5.439E-01	 1.576E-01	 6.914E+00	 1.638E+00	 6.963E-01	-1.887E-02	 5.976E-01	 1.088E+00	 4.499E+00	 1.541E+00	 7.293E-01	 5.976E-01	-7.210E+00	 3.814E-01	 6.245E-02	 5.717E-01	 3.407E+00
    6.3000	 6.300E+00	 0.000E+00	 0.000E+00	 5.590E-01	 7.932E-02	 8.030E+00	 5.590E-01	-2.889E-01	 6.885E+00	 1.681E+00	-4.673E-02	-1.875E-02	 6.276E-01	 1.118E+00	 4.725E+00	 1.623E+00	-5.218E-01	 6.276E-01	-7.189E+00	 3.818E-01	 6.352E-02	 5.691E-01	 3.407E+00
    6.4000	 6.400E+00	 0.000E+00	 0.000E+00	 5.741E-01	 4.160E-01	 7.750E+00	 5.741E-01	-6.360E-01	 7.166E+00	 1.724E+00	-6.191E-01	-1.857E-02	 6.582E-01	 1.148E+00	 4.956E+00	 8.277E-01	-1.491E+00	 6.582E-01	-7.169E+00	 3.819E-01	 6.455E-02	 5.663E-01	 3.407E+00
    6.5000	 6.500E+00	 0.000E+00	 0.000E+00	 5.891E-01	 4.681E-01	 7.311E+00	 5.891E-01	-6.989E-01	 7.604E+00	 1.766E+00	-7.043E-01	-1.836E-02	 6.893E-01	 1.178E+00	 5.190E+00	-4.154E-01	-1.654E+00	 6.893E-01	-7.148E+00	 3.818E-01	 6.553E-02	 5.633E-01	 3.407E+00
    6.6000	 6.600E+00	 0.000E+00	 0.000E+00	 6.039E-01	 2.048E-01	 6.952E+00	 6.039E-01	-4.463E-01	 7.964E+00	 1.808E+00	-2.492E-01	-1.812E-02	 7.208E-01	 1.208E+00	 5.427E+00	-1.434E+00	-9.227E-01	 7.208E-01	-7.127E+00	 3.813E-01	 6.647E-02	 5.601E-01	 3.407E+00
    6.7000	 6.700E+00	 0.000E+00	 0.000E+00	 6.185E-01	-2.346E-01	 6.866E+00	 6.185E-01	-1.777E-02	 8.049E+00	 1.850E+00	 5.073E-01	-1.785E-02	 7.525E-01	 1.237E+00	 5.666E+00	-1.677E+00	 3.072E-01	 7.525E-01	-7.107E+00	 3.805E-01	 6.734E-02	 5.567E-01	 3.407E+00
    6.8000	 6.800E+00	 0.000E+00	 0.000E+00	 6.326E-01	-6.153E-01	 7.100E+00	 6.326E-01	 3.522E-01	 7.815E+00	 1.890E+00	 1.163E+00	-1.758E-02	 7.840E-01	 1.265E+00	 5.903E+00	-1.014E+00	 1.371E+00	 7.840E-01	-7.088E+00	 3.793E-01	 6.811E-02	 5.528E-01	 3.407E+00
    6.9000	 6.900E+00	 0.000E+00	 0.000E+00	 6.460E-01	-7.344E-01	 7.527E+00	 6.460E-01	 4.607E-01	 7.388E+00	 1.928E+00	 1.372E+00	-1.731E-02	 8.151E-01	 1.292E+00	 6.137E+00	 1.978E-01	 1.694E+00	 8.151E-01	-7.069E+00	 3.774E-01	 6.877E-02	 5.482E-01	 3.407E+00
    7.0000	 7.000E+00	 0.000E+00	 0.000E+00	 6.585E-01	-5.303E-01	 7.917E+00	 6.585E-01	 2.464E-01	 6.998E+00	 1.964E+00	 1.026E+00	-1.703E-02	 8.454E-01	 1.317E+00	 6.365E+00	 1.302E+00	 1.101E+00	 8.454E-01	-7.052E+00	 3.749E-01	 6.931E-02	 5.429E-01	 3.407E+00
    7.1000	 7.100E+00	 0.000E+00	 0.000E+00	 6.700E-01	-1.161E-01	 8.058E+00	 6.700E-01	-1.778E-01	 6.857E+00	 1.997E+00	 3.211E-01	-1.675E-02	 8.749E-01	 1.340E+00	 6.587E+00	 1.703E+00	-8.746E-02	 8.749E-01	-7.036E+00	 3.718E-01	 6.972E-02	 5.370E-01	 3.407E+00
    7.2000	 7.200E+00	 0.000E+00	 0.000E+00	 6.809E-01	 2.816E-01	 7.875E+00	 6.809E-01	-5.852E-01	 7.040E+00	 2.029E+00	-3.557E-01	-1.647E-02	 9.038E-01	 1.362E+00	 6.805E+00	 1.183E+00	-1.228E+00	 9.038E-01	-7.021E+00	 3.683E-01	 7.004E-02	 5.307E-01	 3.407E+00
    7.3000	 7.300E+00	 0.000E+00	 0.000E+00	 6.914E-01	 4.449E-01	 7.466E+00	 6.914E-01	-7.582E-01	 7.449E+00	 2.060E+00	-6.314E-01	-1.618E-02	 9.326E-01	 1.383E+00	 7.022E+00	 2.321E-02	-1.705E+00	 9.326E-01	-7.006E+00	 3.647E-01	 7.030E-02	 5.242E-01	 3.407E+00
    7.4000	 7.400E+00	 0.000E+00	 0.000E+00	 7.015E-01	 2.830E-01	 7.052E+00	 7.015E-01	-6.061E-01	 7.863E+00	 2.090E+00	-3.502E-01	-1.587E-02	 9.615E-01	 1.403E+00	 7.240E+00	-1.149E+00	-1.260E+00	 9.615E-01	-6.992E+00	 3.609E-01	 7.054E-02	 5.176E-01	 3.407E+00
    7.5000	 7.500E+00	 0.000E+00	 0.000E+00	 7.113E-01	-1.193E-01	 6.858E+00	 7.113E-01	-2.137E-01	 8.057E+00	 2.119E+00	 3.425E-01	-1.556E-02	 9.906E-01	 1.423E+00	 7.458E+00	-1.700E+00	-1.338E-01	 9.906E-01	-6.979E+00	 3.572E-01	 7.074E-02	 5.110E-01	 3.407E+00
    7.6000	 7.600E+00	 0.000E+00	 0.000E+00	 7.207E-01	-5.471E-01	 6.988E+00	 7.207E-01	 2.042E-01	 7.928E+00	 2.147E+00	 1.079E+00	-1.524E-02	 1.020E+00	 1.441E+00	 7.677E+00	-1.332E+00	 1.065E+00	 1.020E+00	-6.966E+00	 3.533E-01	 7.091E-02	 5.042E-01	 3.407E+00
    7.7000	 7.700E+00	 0.000E+00	 0.000E+00	 7.297E-01	-7.718E-01	 7.372E+00	 7.297E-01	 4.191E-01	 7.544E+00	 2.174E+00	 1.468E+00	-1.492E-02	 1.048E+00	 1.459E+00	 7.894E+00	-2.438E-01	 1.688E+00	 1.048E+00	-6.953E+00	 3.493E-01	 7.103E-02	 4.972E-01	 3.407E+00
    7.8000	 7.800E+00	 0.000E+00	 0.000E+00	 7.381E-01	-6.744E-01	 7.802E+00	 7.381E-01	 3.122E-01	 7.113E+00	 2.200E+00	 1.305E+00	-1.465E-02	 1.077E+00	 1.476E+00	 8.105E+00	 9.761E-01	 1.398E+00	 1.077E+00	-6.942E+00	 3.451E-01	 7.108E-02	 4.901E-01	 3.407E+00
    7.9000	 7.900E+00	 0.000E+00	 0.000E+00	 7.462E-01	-3.102E-01	 8.046E+00	 7.462E-01	-6.122E-02	 6.869E+00	 2.225E+00	 6.850E-01	-1.442E-02	 1.104E+00	 1.492E+00	 8.313E+00	 1.668E+00	 3.528E-01	 1.104E+00	-6.930E+00	 3.406E-01	 7.107E-02	 4.831E-01	 3.407E+00
    8.0000	 8.000E+00	 0.000E+00	 0.000E+00	 7.544E-01	 1.214E-01	 7.972E+00	 7.544E-01	-5.020E-01	 6.943E+00	 2.249E+00	-5.005E-02	-1.424E-02	 1.132E+00	 1.509E+00	 8.520E+00	 1.459E+00	-8.833E-01	 1.132E+00	-6.919E+00	 3.362E-01	 7.103E-02	 4.763E-01	 3.407E+00
    8.1000	 8.100E+00	 0.000E+00	 0.000E+00	 7.628E-01	 3.843E-01	 7.620E+00	 7.628E-01	-7.743E-01	 7.295E+00	 2.273E+00	-4.965E-01	-1.413E-02	 1.159E+00	 1.526E+00	 8.728E+00	 4.603E-01	-1.642E+00	 1.159E+00	-6.907E+00	 3.318E-01	 7.098E-02	 4.698E-01	 3.407E+00
    8.2000	 8.200E+00	 0.000E+00	 0.000E+00	 7.712E-01	 3.341E-01	 7.180E+00	 7.712E-01	-7.334E-01	 7.735E+00	 2.297E+00	-4.068E-01	-1.405E-02	 1.187E+00	 1.542E+00	 8.935E+00	-7.868E-01	-1.513E+00	 1.187E+00	-6.896E+00	 3.274E-01	 7.090E-02	 4.634E-01	 3.407E+00
    8.3000	 8.300E+00	 0.000E+00	 0.000E+00	 7.795E-01	-4.560E-03	 6.890E+00	 7.795E-01	-4.038E-01	 8.025E+00	 2.320E+00	 1.769E-01	-1.403E-02	 1.214E+00	 1.559E+00	 9.139E+00	-1.609E+00	-5.658E-01	 1.214E+00	-6.884E+00	 3.229E-01	 7.078E-02	 4.572E-01	 3.407E+00
    8.4000	 8.400E+00	 0.000E+00	 0.000E+00	 7.872E-01	-4.510E-01	 6.907E+00	 7.872E-01	 3.383E-02	 8.008E+00	 2.342E+00	 9.449E-01	-1.405E-02	 1.240E+00	 1.574E+00	 9.336E+00	-1.561E+00	 6.870E-01	 1.240E+00	-6.874E+00	 3.182E-01	 7.059E-02	 4.508E-01	 3.407E+00
    8.5000	 8.500E+00	 0.000E+00	 0.000E+00	 7.943E-01	-7.661E-01	 7.222E+00	 7.943E-01	 3.407E-01	 7.694E+00	 2.361E+00	 1.488E+00	-1.411E-02	 1.265E+00	 1.589E+00	 9.524E+00	-6.690E-01	 1.568E+00	 1.265E+00	-6.864E+00	 3.133E-01	 7.033E-02	 4.442E-01	 3.407E+00
    8.6000	 8.600E+00	 0.000E+00	 0.000E+00	 8.006E-01	-7.818E-01	 7.664E+00	 8.006E-01	 3.486E-01	 7.251E+00	 2.379E+00	 1.518E+00	-1.419E-02	 1.288E+00	 1.601E+00	 9.701E+00	 5.843E-01	 1.602E+00	 1.288E+00	-6.855E+00	 3.081E-01	 6.998E-02	 4.374E-01	 3.407E+00
    8.7000	 8.700E+00	 0.000E+00	 0.000E+00	 8.063E-01	-4.917E-01	 7.995E+00	 8.063E-01	 5.116E-02	 6.921E+00	 2.395E+00	 1.025E+00	-1.426E-02	 1.311E+00	 1.613E+00	 9.871E+00	 1.522E+00	 7.694E-01	 1.311E+00	-6.847E+00	 3.028E-01	 6.958E-02	 4.304E-01	 3.407E+00
    8.8000	 8.800E+00	 0.000E+00	 0.000E+00	 8.115E-01	-5.483E-02	 8.035E+00	 8.115E-01	-3.930E-01	 6.880E+00	 2.409E+00	 2.802E-01	-1.428E-02	 1.333E+00	 1.623E+00	 1.003E+01	 1.636E+00	-4.792E-01	 1.333E+00	-6.840E+00	 2.975E-01	 6.913E-02	 4.234E-01	 3.407E+00
    8.9000	 8.900E+00	 0.000E+00	 0.000E+00	 8.162E-01	 2.907E-01	 7.763E+00	 8.162E-01	-7.456E-01	 7.152E+00	 2.422E+00	-3.086E-01	-1.429E-02	 1.354E+00	 1.632E+00	 1.019E+01	 8.665E-01	-1.469E+00	 1.354E+00	-6.834E+00	 2.921E-01	 6.866E-02	 4.164E-01	 3.407E+00
    9.0000	 9.000E+00	 0.000E+00	 0.000E+00	 8.208E-01	 3.563E-01	 7.326E+00	 8.208E-01	-8.180E-01	 7.589E+00	 2.435E+00	-4.180E-01	-1.433E-02	 1.374E+00	 1.642E+00	 1.035E+01	-3.720E-01	-1.664E+00	 1.374E+00	-6.827E+00	 2.867E-01	 6.815E-02	 4.094E-01	 3.407E+00
    9.1000	 9.100E+00	 0.000E+00	 0.000E+00	 8.252E-01	 1.045E-01	 6.960E+00	 8.252E-01	-5.728E-01	 7.955E+00	 2.447E+00	 1.593E-02	-1.442E-02	 1.394E+00	 1.650E+00	 1.050E+01	-1.409E+00	-9.599E-01	 1.394E+00	-6.821E+00	 2.814E-01	 6.762E-02	 4.026E-01	 3.407E+00
    9.2000	 9.200E+00	 0.000E+00	 0.000E+00	 8.294E-01	-3.302E-01	 6.863E+00	 8.294E-01	-1.444E-01	 8.052E+00	 2.458E+00	 7.631E-01	-1.454E-02	 1.413E+00	 1.659E+00	 1.064E+01	-1.685E+00	 2.632E-01	 1.413E+00	-6.815E+00	 2.760E-01	 6.707E-02	 3.959E-01	 3.407E+00
    9.3000	 9.300E+00	 0.000E+00	 0.000E+00	 8.330E-01	-7.145E-01	 7.087E+00	 8.330E-01	 2.340E-01	 7.828E+00	 2.468E+00	 1.424E+00	-1.463E-02	 1.431E+00	 1.666E+00	 1.078E+01	-1.049E+00	 1.344E+00	 1.431E+00	-6.810E+00	 2.707E-01	 6.648E-02	 3.892E-01	 3.407E+00
    9.4000	 9.400E+00	 0.000E+00	 0.000E+00	 8.359E-01	-8.420E-01	 7.512E+00	 8.359E-01	 3.564E-01	 7.404E+00	 2.477E+00	 1.645E+00	-1.463E-02	 1.447E+00	 1.672E+00	 1.090E+01	 1.534E-01	 1.698E+00	 1.447E+00	-6.806E+00	 2.651E-01	 6.580E-02	 3.823E-01	 3.407E+00
    9.5000	 9.500E+00	 0.000E+00	 0.000E+00	 8.385E-01	-6.446E-01	 7.907E+00	 8.385E-01	 1.559E-01	 7.008E+00	 2.485E+00	 1.309E+00	-1.482E-02	 1.459E+00	 1.677E+00	 1.099E+01	 1.273E+00	 1.134E+00	 1.459E+00	-6.803E+00	 2.589E-01	 6.495E-02	 3.754E-01	 3.407E+00
    9.6000	 9.600E+00	 0.000E+00	 0.000E+00	 8.413E-01	-2.294E-01	 8.059E+00	 8.413E-01	-2.596E-01	 6.856E+00	 2.492E+00	 6.010E-01	-1.551E-02	 1.465E+00	 1.683E+00	 1.103E+01	 1.705E+00	-4.286E-02	 1.465E+00	-6.799E+00	 2.519E-01	 6.386E-02	 3.689E-01	 3.407E+00
    9.7000	 9.700E+00	 0.000E+00	 0.000E+00	 8.443E-01	 1.792E-01	 7.886E+00	 8.443E-01	-6.653E-01	 7.029E+00	 2.500E+00	-9.594E-02	-1.675E-02	 1.464E+00	 1.689E+00	 1.102E+01	 1.215E+00	-1.197E+00	 1.464E+00	-6.795E+00	 2.440E-01	 6.252E-02	 3.626E-01	 3.407E+00
    9.8000	 9.800E+00	 0.000E+00	 0.000E+00	 8.475E-01	 3.621E-01	 7.482E+00	 8.475E-01	-8.403E-01	 7.434E+00	 2.508E+00	-4.059E-01	-1.860E-02	 1.454E+00	 1.695E+00	 1.094E+01	 6.784E-02	-1.704E+00	 1.454E+00	-6.790E+00	 2.349E-01	 6.080E-02	 3.566E-01	 3.407E+00
    9.9000	 9.900E+00	 0.000E+00	 0.000E+00	 8.509E-01	 2.228E-01	 7.064E+00	 8.509E-01	-6.872E-01	 7.851E+00	 2.516E+00	-1.639E-01	-2.084E-02	 1.431E+00	 1.702E+00	 1.078E+01	-1.116E+00	-1.290E+00	 1.431E+00	-6.786E+00	 2.244E-01	 5.866E-02	 3.508E-01	 3.407E+00
   10.0000	 1.000E+01	 0.000E+00	 0.000E+00	 8.540E-01	-1.619E-01	 6.859E+00	 8.540E-01	-2.876E-01	 8.056E+00	 2.523E+00	 4.982E-01	-2.294E-02	 1.406E+00	 1.708E+00	 1.059E+01	-1.696E+00	-1.782E-01	 1.406E+00	-6.781E+00	 2.139E-01	 5.648E-02	 3.450E-01	 3.407E+00
   10.1000	 1.010E+01	 0.000E+00	 0.000E+00	 8.568E-01	-5.819E-01	 6.978E+00	 8.569E-01	 1.446E-01	 7.937E+00	 2.530E+00	 1.220E+00	-2.469E-02	 1.386E+00	 1.714E+00	 1.043E+01	-1.359E+00	 1.030E+00	 1.386E+00	-6.777E+00	 2.046E-01	 5.457E-02	 3.394E-01	 3.407E+00
   10.2000	 1.020E+01	 0.000E+00	 0.000E+00	 8.596E-01	-8.067E-01	 7.356E+00	 8.596E-01	 3.793E-01	 7.559E+00	 2.537E+00	 1.607E+00	-2.609E-02	 1.368E+00	 1.719E+00	 1.030E+01	-2.879E-01	 1.681E+00	 1.368E+00	-6.773E+00	 1.962E-01	 5.284E-02	 3.338E-01	 3.407E+00
   10.3000	 1.030E+01	 0.000E+00	 0.000E+00	 8.622E-01	-7.124E-01	 7.789E+00	 8.622E-01	 2.919E-01	 7.126E+00	 2.542E+00	 1.447E+00	-2.710E-02	 1.356E+00	 1.724E+00	 1.021E+01	 9.392E-01	 1.423E+00	 1.356E+00	-6.770E+00	 1.888E-01	 5.136E-02	 3.284E-01	 3.407E+00
   10.4000	 1.040E+01	 0.000E+00	 0.000E+00	 8.647E-01	-3.486E-01	 8.043E+00	 8.647E-01	-6.892E-02	 6.872E+00	 2.548E+00	 8.250E-01	-2.783E-02	 1.352E+00	 1.729E+00	 1.018E+01	 1.658E+00	 3.963E-01	 1.352E+00	-6.766E+00	 1.828E-01	 5.020E-02	 3.230E-01	 3.407E+00
   10.5000	 1.050E+01	 0.000E+00	 0.000E+00	 8.671E-01	 8.939E-02	 7.980E+00	 8.671E-01	-5.068E-01	 6.935E+00	 2.554E+00	 7.502E-02	-2.847E-02	 1.351E+00	 1.734E+00	 1.017E+01	 1.481E+00	-8.449E-01	 1.351E+00	-6.763E+00	 1.775E-01	 4.923E-02	 3.178E-01	 3.407E+00
   10.6000	 1.060E+01	 0.000E+00	 0.000E+00	 8.696E-01	 3.655E-01	 7.635E+00	 8.696E-01	-7.842E-01	 7.280E+00	 2.560E+00	-3.985E-01	-2.915E-02	 1.352E+00	 1.739E+00	 1.018E+01	 5.031E-01	-1.629E+00	 1.352E+00	-6.760E+00	 1.727E-01	 4.835E-02	 3.127E-01	 3.407E+00
   10.7000	 1.070E+01	 0.000E+00	 0.000E+00	 8.723E-01	 3.305E-01	 7.194E+00	 8.723E-01	-7.512E-01	 7.721E+00	 2.566E+00	-3.398E-01	-2.989E-02	 1.354E+00	 1.745E+00	 1.020E+01	-7.470E-01	-1.533E+00	 1.354E+00	-6.756E+00	 1.682E-01	 4.752E-02	 3.078E-01	 3.407E+00
   10.8000	 1.080E+01	 0.000E+00	 0.000E+00	 8.752E-01	 3.005E-03	 6.895E+00	 8.752E-01	-4.258E-01	 8.020E+00	 2.572E+00	 2.193E-01	-3.070E-02	 1.356E+00	 1.750E+00	 1.021E+01	-1.593E+00	-6.077E-01	 1.356E+00	-6.752E+00	 1.637E-01	 4.668E-02	 3.032E-01	 3.407E+00
   10.9000	 1.090E+01	 0.000E+00	 0.000E+00	 8.785E-01	-4.403E-01	 6.901E+00	 8.785E-01	 1.554E-02	 8.014E+00	 2.579E+00	 9.764E-01	-3.165E-02	 1.356E+00	 1.757E+00	 1.021E+01	-1.578E+00	 6.459E-01	 1.356E+00	-6.747E+00	 1.592E-01	 4.584E-02	 2.988E-01	 3.407E+00
   11.0000	 1.100E+01	 0.000E+00	 0.000E+00	 8.822E-01	-7.602E-01	 7.207E+00	 8.822E-01	 3.338E-01	 7.708E+00	 2.586E+00	 1.522E+00	-3.270E-02	 1.355E+00	 1.764E+00	 1.020E+01	-7.098E-01	 1.550E+00	 1.355E+00	-6.742E+00	 1.549E-01	 4.499E-02	 2.946E-01	 3.407E+00
   11.1000	 1.110E+01	 0.000E+00	 0.000E+00	 8.863E-01	-7.844E-01	 7.649E+00	 8.863E-01	 3.564E-01	 7.266E+00	 2.594E+00	 1.561E+00	-3.381E-02	 1.354E+00	 1.773E+00	 1.020E+01	 5.422E-01	 1.617E+00	 1.354E+00	-6.737E+00	 1.506E-01	 4.416E-02	 2.906E-01	 3.407E+00
   11.2000	 1.120E+01	 0.000E+00	 0.000E+00	 8.907E-01	-5.003E-01	 7.987E+00	 8.907E-01	 7.056E-02	 6.928E+00	 2.602E+00	 1.072E+00	-3.500E-02	 1.353E+00	 1.781E+00	 1.019E+01	 1.501E+00	 8.089E-01	 1.353E+00	-6.730E+00	 1.465E-01	 4.333E-02	 2.869E-01	 3.407E+00
   11.3000	 1.130E+01	 0.000E+00	 0.000E+00	 8.955E-01	-6.172E-02	 8.039E+00	 8.955E-01	-3.695E-01	 6.876E+00	 2.611E+00	 3.188E-01	-3.629E-02	 1.351E+00	 1.791E+00	 1.017E+01	 1.648E+00	-4.362E-01	 1.351E+00	-6.724E+00	 1.424E-01	 4.250E-02	 2.834E-01	 3.407E+00
   11.4000	 1.140E+01	 0.000E+00	 0.000E+00	 9.007E-01	 2.936E-01	 7.777E+00	 9.007E-01	-7.263E-01	 7.138E+00	 2.621E+00	-2.925E-01	-3.768E-02	 1.348E+00	 1.801E+00	 1.015E+01	 9.046E-01	-1.445E+00	 1.348E+00	-6.717E+00	 1.384E-01	 4.168E-02	 2.800E-01	 3.407E+00
   11.5000	 1.150E+01	 0.000E+00	 0.000E+00	 9.061E-01	 3.732E-01	 7.342E+00	 9.061E-01	-8.075E-01	 7.573E+00	 2.630E+00	-4.317E-01	-3.909E-02	 1.346E+00	 1.812E+00	 1.013E+01	-3.283E-01	-1.673E+00	 1.346E+00	-6.709E+00	 1.346E-01	 4.088E-02	 2.768E-01	 3.407E+00
   11.6000	 1.160E+01	 0.000E+00	 0.000E+00	 9.118E-01	 1.336E-01	 6.969E+00	 9.118E-01	-5.696E-01	 7.946E+00	 2.640E+00	-2.445E-02	-4.054E-02	 1.343E+00	 1.824E+00	 1.012E+01	-1.384E+00	-9.965E-01	 1.343E+00	-6.701E+00	 1.309E-01	 4.011E-02	 2.738E-01	 3.407E+00
   11.7000	 1.170E+01	 0.000E+00	 0.000E+00	 9.177E-01	-2.961E-01	 6.861E+00	 9.177E-01	-1.416E-01	 8.054E+00	 2.650E+00	 7.081E-01	-4.204E-02	 1.341E+00	 1.835E+00	 1.009E+01	-1.691E+00	 2.190E-01	 1.341E+00	-6.693E+00	 1.273E-01	 3.934E-02	 2.709E-01	 3.407E+00
   11.8000	 1.180E+01	 0.000E+00	 0.000E+00	 9.239E-01	-6.840E-01	 7.075E+00	 9.239E-01	 2.448E-01	 7.840E+00	 2.661E+00	 1.368E+00	-4.363E-02	 1.336E+00	 1.848E+00	 1.006E+01	-1.084E+00	 1.316E+00	 1.336E+00	-6.685E+00	 1.237E-01	 3.856E-02	 2.681E-01	 3.407E+00
   11.9000	 1.190E+01	 0.000E+00	 0.000E+00	 9.300E-01	-8.207E-01	 7.496E+00	 9.300E-01	 3.801E-01	 7.419E+00	 2.671E+00	 1.599E+00	-4.526E-02	 1.331E+00	 1.860E+00	 1.002E+01	 1.089E-01	 1.702E+00	 1.331E+00	-6.676E+00	 1.202E-01	 3.777E-02	 2.654E-01	 3.407E+00
   12.0000	 1.200E+01	 0.000E+00	 0.000E+00	 9.362E-01	-6.329E-01	 7.896E+00	 9.362E-01	 1.908E-01	 7.019E+00	 2.681E+00	 1.273E+00	-4.689E-02	 1.326E+00	 1.872E+00	 9.987E+00	 1.243E+00	 1.167E+00	 1.326E+00	-6.668E+00	 1.168E-01	 3.700E-02	 2.627E-01	 3.407E+00
   12.1000	 1.210E+01	 0.000E+00	 0.000E+00	 9.424E-01	-2.225E-01	 8.059E+00	 9.424E-01	-2.212E-01	 6.856E+00	 2.690E+00	 5.660E-01	-4.853E-02	 1.322E+00	 1.885E+00	 9.951E+00	 1.705E+00	 1.778E-03	 1.322E+00	-6.659E+00	 1.135E-01	 3.626E-02	 2.601E-01	 3.407E+00
   12.2000	 1.220E+01	 0.000E+00	 0.000E+00	 9.490E-01	 1.882E-01	 7.897E+00	 9.490E-01	-6.337E-01	 7.018E+00	 2.701E+00	-1.413E-01	-5.018E-02	 1.317E+00	 1.898E+00	 9.917E+00	 1.245E+00	-1.165E+00	 1.317E+00	-6.650E+00	 1.103E-01	 3.555E-02	 2.576E-01	 3.407E+00
   12.3000	 1.230E+01	 0.000E+00	 0.000E+00	 9.559E-01	 3.766E-01	 7.497E+00	 9.559E-01	-8.240E-01	 7.418E+00	 2.712E+00	-4.683E-01	-5.187E-02	 1.313E+00	 1.912E+00	 9.883E+00	 1.124E-01	-1.701E+00	 1.313E+00	-6.640E+00	 1.073E-01	 3.485E-02	 2.553E-01	 3.407E+00
   12.4000	 1.240E+01	 0.000E+00	 0.000E+00	 9.631E-01	 2.405E-01	 7.076E+00	 9.631E-01	-6.899E-01	 7.839E+00	 2.724E+00	-2.397E-01	-5.361E-02	 1.308E+00	 1.926E+00	 9.846E+00	-1.081E+00	-1.318E+00	 1.308E+00	-6.630E+00	 1.043E-01	 3.417E-02	 2.531E-01	 3.407E+00
   12.5000	 1.250E+01	 0.000E+00	 0.000E+00	 9.706E-01	-1.472E-01	 6.861E+00	 9.706E-01	-3.043E-01	 8.054E+00	 2.737E+00	 4.194E-01	-5.538E-02	 1.303E+00	 1.941E+00	 9.808E+00	-1.691E+00	-2.226E-01	 1.303E+00	-6.620E+00	 1.015E-01	 3.349E-02	 2.510E-01	 3.407E+00
   12.6000	 1.260E+01	 0.000E+00	 0.000E+00	 9.783E-01	-5.773E-01	 6.969E+00	 9.783E-01	 1.238E-01	 7.947E+00	 2.750E+00	 1.151E+00	-5.716E-02	 1.297E+00	 1.957E+00	 9.767E+00	-1.386E+00	 9.936E-01	 1.297E+00	-6.609E+00	 9.864E-02	 3.282E-02	 2.490E-01	 3.407E+00
   12.7000	 1.270E+01	 0.000E+00	 0.000E+00	 9.861E-01	-8.179E-01	 7.341E+00	 9.861E-01	 3.624E-01	 7.575E+00	 2.763E+00	 1.558E+00	-5.894E-02	 1.291E+00	 1.972E+00	 9.720E+00	-3.318E-01	 1.673E+00	 1.291E+00	-6.598E+00	 9.586E-02	 3.215E-02	 2.470E-01	 3.407E+00
   12.8000	 1.280E+01	 0.000E+00	 0.000E+00	 9.939E-01	-7.393E-01	 7.776E+00	 9.939E-01	 2.820E-01	 7.140E+00	 2.777E+00	 1.417E+00	-6.072E-02	 1.284E+00	 1.988E+00	 9.666E+00	 9.016E-01	 1.447E+00	 1.284E+00	-6.588E+00	 9.311E-02	 3.148E-02	 2.451E-01	 3.407E+00
   12.9000	 1.290E+01	 0.000E+00	 0.000E+00	 1.002E+00	-3.847E-01	 8.039E+00	 1.002E+00	-7.449E-02	 6.876E+00	 2.790E+00	 8.045E-01	-6.248E-02	 1.276E+00	 2.004E+00	 9.609E+00	 1.648E+00	 4.396E-01	 1.276E+00	-6.576E+00	 9.042E-02	 3.081E-02	 2.433E-01	 3.407E+00
   13.0000	 1.300E+01	 0.000E+00	 0.000E+00	 1.010E+00	 5.374E-02	 7.988E+00	 1.010E+00	-5.149E-01	 6.927E+00	 2.804E+00	 4.781E-02	-6.421E-02	 1.268E+00	 2.020E+00	 9.550E+00	 1.503E+00	-8.058E-01	 1.268E+00	-6.565E+00	 8.782E-02	 3.015E-02	 2.415E-01	 3.407E+00
   13.1000	 1.310E+01	 0.000E+00	 0.000E+00	 1.018E+00	 3.384E-01	 7.650E+00	 1.018E+00	-8.016E-01	 7.265E+00	 2.818E+00	-4.456E-01	-6.592E-02	 1.261E+00	 2.036E+00	 9.493E+00	 5.456E-01	-1.616E+00	 1.261E+00	-6.554E+00	 8.531E-02	 2.951E-02	 2.397E-01	 3.407E+00
   13.2000	 1.320E+01	 0.000E+00	 0.000E+00	 1.026E+00	 3.148E-01	 7.208E+00	 1.026E+00	-7.803E-01	 7.707E+00	 2.832E+00	-4.115E-01	-6.760E-02	 1.253E+00	 2.053E+00	 9.436E+00	-7.066E-01	-1.552E+00	 1.253E+00	-6.543E+00	 8.288E-02	 2.889E-02	 2.380E-01	 3.407E+00
   13.3000	 1.330E+01	 0.000E+00	 0.000E+00	 1.035E+00	-4.812E-03	 6.901E+00	 1.035E+00	-4.629E-01	 8.014E+00	 2.847E+00	 1.294E-01	-6.928E-02	 1.245E+00	 2.069E+00	 9.376E+00	-1.577E+00	-6.492E-01	 1.245E+00	-6.531E+00	 8.052E-02	 2.828E-02	 2.363E-01	 3.407E+00
   13.4000	 1.340E+01	 0.000E+00	 0.000E+00	 1.043E+00	-4.483E-01	 6.895E+00	 1.043E+00	-2.178E-02	 8.020E+00	 2.861E+00	 8.821E-01	-7.094E-02	 1.237E+00	 2.086E+00	 9.314E+00	-1.594E+00	 6.044E-01	 1.237E+00	-6.520E+00	 7.820E-02	 2.768E-02	 2.347E-01	 3.407E+00
   13.5000	 1.350E+01	 0.000E+00	 0.000E+00	 1.051E+00	-7.765E-01	 7.193E+00	 1.051E+00	 3.041E-01	 7.722E+00	 2.876E+00	 1.437E+00	-7.257E-02	 1.229E+00	 2.103E+00	 9.250E+00	-7.502E-01	 1.531E+00	 1.229E+00	-6.508E+00	 7.595E-02	 2.708E-02	 2.331E-01	 3.407E+00
   13.6000	 1.360E+01	 0.000E+00	 0.000E+00	 1.060E+00	-8.126E-01	 7.634E+00	 1.060E+00	 3.379E-01	 7.281E+00	 2.892E+00	 1.492E+00	-7.418E-02	 1.219E+00	 2.120E+00	 9.181E+00	 4.997E-01	 1.630E+00	 1.219E+00	-6.496E+00	 7.374E-02	 2.648E-02	 2.316E-01	 3.407E+00
   13.7000	 1.370E+01	 0.000E+00	 0.000E+00	 1.069E+00	-5.376E-01	 7.980E+00	 1.069E+00	 6.079E-02	 6.936E+00	 2.908E+00	 1.014E+00	-7.577E-02	 1.209E+00	 2.138E+00	 9.105E+00	 1.479E+00	 8.479E-01	 1.209E+00	-6.484E+00	 7.153E-02	 2.588E-02	 2.301E-01	 3.407E+00
   13.8000	 1.380E+01	 0.000E+00	 0.000E+00	 1.077E+00	-1.007E-01	 8.043E+00	 1.077E+00	-3.779E-01	 6.872E+00	 2.924E+00	 2.581E-01	-7.734E-02	 1.198E+00	 2.155E+00	 9.017E+00	 1.659E+00	-3.929E-01	 1.198E+00	-6.472E+00	 6.931E-02	 2.526E-02	 2.286E-01	 3.407E+00
   13.9000	 1.390E+01	 0.000E+00	 0.000E+00	 1.086E+00	 2.614E-01	 7.790E+00	 1.086E+00	-7.415E-01	 7.125E+00	 2.939E+00	-3.703E-01	-7.891E-02	 1.184E+00	 2.172E+00	 8.916E+00	 9.421E-01	-1.421E+00	 1.184E+00	-6.460E+00	 6.707E-02	 2.462E-02	 2.271E-01	 3.407E+00
   14.0000	 1.400E+01	 0.000E+00	 0.000E+00	 1.094E+00	 3.526E-01	 7.357E+00	 1.094E+00	-8.338E-01	 7.558E+00	 2.952E+00	-5.351E-01	-8.049E-02	 1.169E+00	 2.188E+00	 8.803E+00	-2.844E-01	-1.681E+00	 1.169E+00	-6.449E+00	 6.481E-02	 2.396E-02	 2.255E-01	 3.407E+00
   14.1000	 1.410E+01	 0.000E+00	 0.000E+00	 1.102E+00	 1.231E-01	 6.979E+00	 1.102E+00	-6.054E-01	 7.936E+00	 2.964E+00	-1.511E-01	-8.207E-02	 1.154E+00	 2.204E+00	 8.686E+00	-1.357E+00	-1.032E+00	 1.154E+00	-6.438E+00	 6.260E-02	 2.331E-02	 2.239E-01	 3.407E+00
   14.2000	 1.420E+01	 0.000E+00	 0.000E+00	 1.110E+00	-3.033E-01	 6.859E+00	 1.110E+00	-1.801E-01	 8.056E+00	 2.977E+00	 5.701E-01	-8.363E-02	 1.138E+00	 2.219E+00	 8.568E+00	-1.696E+00	 1.747E-01	 1.138E+00	-6.428E+00	 6.046E-02	 2.267E-02	 2.223E-01	 3.407E+00
   14.3000	 1.430E+01	 0.000E+00	 0.000E+00	 1.117E+00	-6.965E-01	 7.063E+00	 1.117E+00	 2.119E-01	 7.852E+00	 2.989E+00	 1.235E+00	-8.515E-02	 1.123E+00	 2.235E+00	 8.457E+00	-1.118E+00	 1.287E+00	 1.123E+00	-6.417E+00	 5.842E-02	 2.206E-02	 2.208E-01	 3.407E+00
   14.4000	 1.440E+01	 0.000E+00	 0.000E+00	 1.125E+00	-8.442E-01	 7.480E+00	 1.125E+00	 3.582E-01	 7.435E+00	 3.003E+00	 1.479E+00	-8.659E-02	 1.109E+00	 2.251E+00	 8.353E+00	 6.428E-02	 1.704E+00	 1.109E+00	-6.406E+00	 5.651E-02	 2.149E-02	 2.193E-01	 3.407E+00
   14.5000	 1.450E+01	 0.000E+00	 0.000E+00	 1.134E+00	-6.670E-01	 7.885E+00	 1.134E+00	 1.794E-01	 7.030E+00	 3.018E+00	 1.167E+00	-8.792E-02	 1.096E+00	 2.267E+00	 8.254E+00	 1.212E+00	 1.199E+00	 1.096E+00	-6.394E+00	 5.470E-02	 2.095E-02	 2.179E-01	 3.407E+00
   14.6000	 1.460E+01	 0.000E+00	 0.000E+00	 1.142E+00	-2.610E-01	 8.059E+00	 1.142E+00	-2.283E-01	 6.856E+00	 3.034E+00	 4.643E-01	-8.915E-02	 1.084E+00	 2.284E+00	 8.162E+00	 1.705E+00	 4.641E-02	 1.084E+00	-6.383E+00	 5.298E-02	 2.043E-02	 2.165E-01	 3.407E+00
   14.7000	 1.470E+01	 0.000E+00	 0.000E+00	 1.151E+00	 1.537E-01	 7.908E+00	 1.151E+00	-6.448E-01	 7.008E+00	 3.050E+00	-2.535E-01	-9.032E-02	 1.073E+00	 2.301E+00	 8.075E+00	 1.276E+00	-1.132E+00	 1.073E+00	-6.371E+00	 5.136E-02	 1.994E-02	 2.151E-01	 3.407E+00
   14.8000	 1.480E+01	 0.000E+00	 0.000E+00	 1.159E+00	 3.525E-01	 7.513E+00	 1.159E+00	-8.457E-01	 7.402E+00	 3.067E+00	-6.012E-01	-9.150E-02	 1.062E+00	 2.318E+00	 7.997E+00	 1.569E-01	-1.698E+00	 1.062E+00	-6.359E+00	 4.984E-02	 1.948E-02	 2.138E-01	 3.407E+00
   14.9000	 1.490E+01	 0.000E+00	 0.000E+00	 1.167E+00	 2.274E-01	 7.088E+00	 1.167E+00	-7.226E-01	 7.827E+00	 3.082E+00	-3.943E-01	-9.273E-02	 1.052E+00	 2.334E+00	 7.921E+00	-1.047E+00	-1.346E+00	 1.052E+00	-6.348E+00	 4.838E-02	 1.904E-02	 2.124E-01	 3.407E+00
   15.0000	 1.500E+01	 0.000E+00	 0.000E+00	 1.175E+00	-1.545E-01	 6.863E+00	 1.175E+00	-3.428E-01	 8.052E+00	 3.097E+00	 2.525E-01	-9.403E-02	 1.042E+00	 2.350E+00	 7.847E+00	-1.684E+00	-2.667E-01	 1.042E+00	-6.337E+00	 4.697E-02	 1.861E-02	 2.110E-01	 3.407E+00
   15.1000	 1.510E+01	 0.000E+00	 0.000E+00	 1.183E+00	-5.873E-01	 6.960E+00	 1.183E+00	 8.799E-02	 7.956E+00	 3.112E+00	 9.864E-01	-9.537E-02	 1.032E+00	 2.366E+00	 7.771E+00	-1.411E+00	 9.570E-01	 1.032E+00	-6.326E+00	 4.560E-02	 1.818E-02	 2.096E-01	 3.407E+00
   15.2000	 1.520E+01	 0.000E+00	 0.000E+00	 1.191E+00	-8.375E-01	 7.325E+00	 1.191E+00	 3.363E-01	 7.590E+00	 3.126E+00	 1.407E+00	-9.670E-02	 1.022E+00	 2.381E+00	 7.693E+00	-3.754E-01	 1.663E+00	 1.022E+00	-6.315E+00	 4.425E-02	 1.776E-02	 2.082E-01	 3.407E+00
   15.3000	 1.530E+01	 0.000E+00	 0.000E+00	 1.198E+00	-7.703E-01	 7.762E+00	 1.198E+00	 2.673E-01	 7.153E+00	 3.140E+00	 1.285E+00	-9.796E-02	 1.011E+00	 2.397E+00	 7.615E+00	 8.634E-01	 1.470E+00	 1.011E+00	-6.305E+00	 4.296E-02	 1.736E-02	 2.068E-01	 3.407E+00
   15.4000	 1.540E+01	 0.000E+00	 0.000E+00	 1.206E+00	-4.228E-01	 8.035E+00	 1.206E+00	-8.224E-02	 6.881E+00	 3.155E+00	 6.835E-01	-9.912E-02	 1.002E+00	 2.412E+00	 7.545E+00	 1.635E+00	 4.826E-01	 1.002E+00	-6.294E+00	 4.174E-02	 1.697E-02	 2.055E-01	 3.407E+00
   15.5000	 1.550E+01	 0.000E+00	 0.000E+00	 1.214E+00	 1.668E-02	 7.995E+00	 1.214E+00	-5.240E-01	 6.920E+00	 3.171E+00	-7.512E-02	-1.002E-01	 9.947E-01	 2.427E+00	 7.489E+00	 1.523E+00	-7.662E-01	 9.947E-01	-6.283E+00	 4.063E-02	 1.663E-02	 2.041E-01	 3.407E+00
   15.6000	 1.560E+01	 0.000E+00	 0.000E+00	 1.221E+00	 3.098E-01	 7.665E+00	 1.221E+00	-8.198E-01	 7.250E+00	 3.187E+00	-5.824E-01	-1.013E-01	 9.896E-01	 2.443E+00	 7.451E+00	 5.877E-01	-1.601E+00	 9.896E-01	-6.273E+00	 3.965E-02	 1.633E-02	 2.028E-01	 3.407E+00
   15.7000	 1.570E+01	 0.000E+00	 0.000E+00	 1.229E+00	 2.973E-01	 7.223E+00	 1.229E+00	-8.105E-01	 7.692E+00	 3.203E+00	-5.656E-01	-1.023E-01	 9.873E-01	 2.458E+00	 7.434E+00	-6.657E-01	-1.570E+00	 9.873E-01	-6.262E+00	 3.881E-02	 1.609E-02	 2.015E-01	 3.407E+00
   15.8000	 1.580E+01	 0.000E+00	 0.000E+00	 1.237E+00	-1.484E-02	 6.907E+00	 1.237E+00	-5.019E-01	 8.008E+00	 3.219E+00	-3.493E-02	-1.034E-01	 9.874E-01	 2.474E+00	 7.435E+00	-1.559E+00	-6.903E-01	 9.874E-01	-6.251E+00	 3.808E-02	 1.589E-02	 2.002E-01	 3.407E+00