
Predictions were generated on 03-Oct-2013 at 10:54:59 using FAST (v8.03.02a-bjj, 29-Sep-2013), compiled for 32-bit systems using single precision
 linked with  NWTC Subroutine Library (v2.03.00b-bjj, 1-Oct-2013); ElastoDyn (v1.00.02a-bjj, 11-Sep-2013); InflowWind (v2.00.00, 17-Sept-2013); AeroDyn (v14.02.00c-mlb, 02-Oct-2013); ServoDyn (v1.01.01a-bjj, 06-Sep-2013)

Description from the FAST input file: FAST Certification Test #01: AWT-27CR2 with many DOFs with fixed yaw error and steady wind

Time      	WindVxi   	WindVyi   	WindVzi   	LSSGagPxa 	TeetDefl  	TipDxb2   	TipDyb2   	TipALxb2  	TipALyb2  	Spn2ALxb1 	Spn2ALyb1 	YawBrRDxt 	YawBrRDyt 	YawBrRVxp 	YawBrRVyp 	YawBrRAxp 	YawBrRAyp 	RootMyc1  	RootMxc1  	RootFxc2  	RootFyc2  	Spn3MLxb1 	Spn3MLyb1 	RotTorq   	YawBrMzn  	TwrBsMzt  
(s)       	m/s       	m/s       	m/s       	(deg)     	(deg)     	(m)       	(m)       	(m/s^2)   	(m/s^2)   	(m/s^2)   	(m/s^2)   	(deg)     	(deg)     	(deg/s)   	(deg/s)   	(deg/s^2) 	(deg/s^2) 	(kN·m)    	(kN·m)    	(kN)      	(kN)      	(kN·m)    	(kN·m)    	(kN·m)    	(kN·m)    	(kN·m)    
   10.0000	 1.039E+01	-6.000E+00	 0.000E+00	 1.831E+01	 9.590E-01	 1.625E-01	-2.513E-02	 7.247E+01	-8.506E-01	 2.753E+01	 2.410E+00	 3.379E-02	 1.001E-01	-1.503E-03	-3.219E-02	-2.146E-01	 4.009E-01	 3.647E+01	 2.090E+01	 4.892E+00	-1.174E+00	 1.669E+00	 3.728E+00	 3.553E+01	-1.969E+00	-1.971E+00
   10.0200	 1.039E+01	-6.000E+00	 0.000E+00	 2.483E+01	 8.832E-01	 1.592E-01	-2.495E-02	 7.246E+01	 1.190E+00	 2.809E+01	 2.166E+00	 3.371E-02	 9.948E-02	-5.724E-03	-2.753E-02	-1.947E-01	 1.353E-02	 3.627E+01	 2.238E+01	 4.950E+00	-9.478E-01	 1.775E+00	 3.884E+00	 3.669E+01	-1.921E+00	-1.922E+00
   10.0400	 1.039E+01	-6.000E+00	 0.000E+00	 3.134E+01	 7.954E-01	 1.592E-01	-2.421E-02	 6.916E+01	 1.782E+00	 2.951E+01	 2.280E+00	 3.356E-02	 9.890E-02	-9.072E-03	-3.178E-02	-1.366E-01	-4.018E-01	 3.538E+01	 2.457E+01	 4.812E+00	-5.729E-01	 1.983E+00	 4.208E+00	 3.720E+01	-2.769E+00	-2.770E+00
   10.0600	 1.039E+01	-6.000E+00	 0.000E+00	 3.785E+01	 6.966E-01	 1.613E-01	-2.293E-02	 6.511E+01	 9.818E-01	 3.035E+01	 2.532E+00	 3.336E-02	 9.818E-02	-1.126E-02	-4.071E-02	-8.564E-02	-4.009E-01	 3.485E+01	 2.706E+01	 4.700E+00	-7.559E-02	 2.233E+00	 4.454E+00	 3.684E+01	-4.173E+00	-4.173E+00
   10.0800	 1.039E+01	-6.000E+00	 0.000E+00	 4.437E+01	 5.895E-01	 1.640E-01	-2.161E-02	 6.360E+01	-3.629E-01	 3.018E+01	 2.688E+00	 3.312E-02	 9.731E-02	-1.285E-02	-4.462E-02	-8.293E-02	 6.471E-02	 3.517E+01	 2.940E+01	 4.721E+00	 4.297E-01	 2.470E+00	 4.516E+00	 3.614E+01	-5.473E+00	-5.472E+00
   10.1000	 1.039E+01	-6.000E+00	 0.000E+00	 5.088E+01	 4.755E-01	 1.669E-01	-2.086E-02	 6.431E+01	-9.417E-01	 2.936E+01	 2.628E+00	 3.284E-02	 9.647E-02	-1.494E-02	-3.765E-02	-1.310E-01	 6.019E-01	 3.611E+01	 3.110E+01	 4.862E+00	 8.091E-01	 2.623E+00	 4.442E+00	 3.580E+01	-6.179E+00	-6.177E+00
   10.1200	 1.039E+01	-6.000E+00	 0.000E+00	 5.740E+01	 3.552E-01	 1.696E-01	-2.088E-02	 6.515E+01	-2.300E-01	 2.870E+01	 2.396E+00	 3.251E-02	 9.585E-02	-1.807E-02	-2.310E-02	-1.763E-01	 7.716E-01	 3.703E+01	 3.199E+01	 5.007E+00	 1.011E+00	 2.662E+00	 4.365E+00	 3.608E+01	-6.259E+00	-6.257E+00
   10.1400	 1.039E+01	-6.000E+00	 0.000E+00	 6.391E+01	 2.299E-01	 1.725E-01	-2.138E-02	 6.491E+01	 1.169E+00	 2.869E+01	 2.133E+00	 3.211E-02	 9.553E-02	-2.153E-02	-9.994E-03	-1.547E-01	 4.794E-01	 3.750E+01	 3.232E+01	 5.059E+00	 1.094E+00	 2.623E+00	 4.381E+00	 3.668E+01	-6.045E+00	-6.042E+00
   10.1600	 1.039E+01	-6.000E+00	 0.000E+00	 7.043E+01	 1.008E-01	 1.751E-01	-2.185E-02	 6.380E+01	 2.236E+00	 2.916E+01	 1.972E+00	 3.166E-02	 9.540E-02	-2.365E-02	-5.093E-03	-4.581E-02	 1.974E-02	 3.758E+01	 3.253E+01	 5.030E+00	 1.157E+00	 2.576E+00	 4.467E+00	 3.713E+01	-5.893E+00	-5.889E+00
   10.1800	 1.039E+01	-6.000E+00	 0.000E+00	 7.694E+01	-3.074E-02	 1.770E-01	-2.191E-02	 6.283E+01	 2.330E+00	 2.960E+01	 1.965E+00	 3.119E-02	 9.528E-02	-2.305E-02	-7.653E-03	 1.055E-01	-2.127E-01	 3.765E+01	 3.297E+01	 4.995E+00	 1.266E+00	 2.578E+00	 4.543E+00	 3.718E+01	-5.898E+00	-5.894E+00
   10.2000	 1.039E+01	-6.000E+00	 0.000E+00	 8.346E+01	-1.629E-01	 1.777E-01	-2.153E-02	 6.280E+01	 1.544E+00	 2.972E+01	 2.090E+00	 3.076E-02	 9.509E-02	-1.969E-02	-1.101E-02	 2.173E-01	-6.130E-02	 3.792E+01	 3.371E+01	 4.993E+00	 1.415E+00	 2.648E+00	 4.554E+00	 3.700E+01	-5.885E+00	-5.882E+00
   10.2200	 1.039E+01	-6.000E+00	 0.000E+00	 8.997E+01	-2.933E-01	 1.773E-01	-2.101E-02	 6.356E+01	 5.235E-01	 2.961E+01	 2.263E+00	 3.041E-02	 9.488E-02	-1.498E-02	-8.676E-03	 2.363E-01	 3.072E-01	 3.834E+01	 3.446E+01	 5.014E+00	 1.538E+00	 2.746E+00	 4.514E+00	 3.688E+01	-5.629E+00	-5.626E+00
   10.2400	 1.039E+01	-6.000E+00	 0.000E+00	 9.649E+01	-4.197E-01	 1.763E-01	-2.070E-02	 6.439E+01	-7.697E-02	 2.954E+01	 2.404E+00	 3.015E-02	 9.479E-02	-1.072E-02	 5.597E-04	 1.825E-01	 5.784E-01	 3.870E+01	 3.483E+01	 5.022E+00	 1.567E+00	 2.803E+00	 4.470E+00	 3.702E+01	-5.065E+00	-5.062E+00
   10.2600	 1.039E+01	-6.000E+00	 0.000E+00	 1.030E+02	-5.398E-01	 1.752E-01	-2.076E-02	 6.477E+01	-3.688E-02	 2.969E+01	 2.474E+00	 2.997E-02	 9.492E-02	-7.692E-03	 1.237E-02	 1.262E-01	 5.528E-01	 3.888E+01	 3.454E+01	 4.982E+00	 1.482E+00	 2.772E+00	 4.450E+00	 3.732E+01	-4.305E+00	-4.302E+00
   10.2800	 1.039E+01	-6.000E+00	 0.000E+00	 1.095E+02	-6.515E-01	 1.742E-01	-2.116E-02	 6.478E+01	 3.579E-01	 2.995E+01	 2.485E+00	 2.984E-02	 9.526E-02	-5.240E-03	 2.104E-02	 1.315E-01	 2.926E-01	 3.892E+01	 3.366E+01	 4.914E+00	 1.309E+00	 2.659E+00	 4.442E+00	 3.757E+01	-3.507E+00	-3.505E+00
   10.3000	 1.039E+01	-6.000E+00	 0.000E+00	 1.160E+02	-7.532E-01	 1.735E-01	-2.168E-02	 6.469E+01	 6.480E-01	 3.010E+01	 2.493E+00	 2.977E-02	 9.572E-02	-1.974E-03	 2.395E-02	 2.023E-01	 1.617E-02	 3.899E+01	 3.247E+01	 4.843E+00	 1.096E+00	 2.515E+00	 4.412E+00	 3.765E+01	-2.749E+00	-2.748E+00
   10.3200	 1.039E+01	-6.000E+00	 0.000E+00	 1.226E+02	-8.439E-01	 1.729E-01	-2.216E-02	 6.467E+01	 5.329E-01	 3.004E+01	 2.551E+00	 2.977E-02	 9.619E-02	 2.931E-03	 2.286E-02	 2.839E-01	-8.914E-02	 3.915E+01	 3.129E+01	 4.787E+00	 8.777E-01	 2.394E+00	 4.349E+00	 3.758E+01	-2.000E+00	-1.999E+00
   10.3400	 1.039E+01	-6.000E+00	 0.000E+00	 1.291E+02	-9.226E-01	 1.725E-01	-2.257E-02	 6.466E+01	 5.933E-02	 2.983E+01	 2.673E+00	 2.989E-02	 9.663E-02	 9.046E-03	 2.175E-02	 3.162E-01	 3.085E-03	 3.940E+01	 3.019E+01	 4.745E+00	 6.456E-01	 2.313E+00	 4.271E+00	 3.751E+01	-1.237E+00	-1.238E+00
   10.3600	 1.039E+01	-6.000E+00	 0.000E+00	 1.356E+02	-9.888E-01	 1.722E-01	-2.300E-02	 6.454E+01	-4.836E-01	 2.965E+01	 2.826E+00	 3.014E-02	 9.708E-02	 1.509E-02	 2.352E-02	 2.770E-01	 1.711E-01	 3.966E+01	 2.904E+01	 4.705E+00	 3.802E-01	 2.242E+00	 4.211E+00	 3.750E+01	-5.185E-01	-5.198E-01
   10.3800	 1.039E+01	-6.000E+00	 0.000E+00	 1.421E+02	-1.042E+00	 1.718E-01	-2.355E-02	 6.438E+01	-8.600E-01	 2.960E+01	 2.966E+00	 3.049E-02	 9.759E-02	 1.982E-02	 2.812E-02	 1.937E-01	 2.665E-01	 3.987E+01	 2.763E+01	 4.657E+00	 6.073E-02	 2.147E+00	 4.190E+00	 3.755E+01	 5.219E-02	 5.026E-02
   10.4000	 1.039E+01	-6.000E+00	 0.000E+00	 1.486E+02	-1.081E+00	 1.714E-01	-2.429E-02	 6.436E+01	-9.993E-01	 2.962E+01	 3.058E+00	 3.092E-02	 9.821E-02	 2.285E-02	 3.323E-02	 1.134E-01	 2.137E-01	 4.005E+01	 2.585E+01	 4.600E+00	-3.162E-01	 2.004E+00	 4.205E+00	 3.759E+01	 3.692E-01	 3.667E-01
   10.4200	 1.039E+01	-6.000E+00	 0.000E+00	 1.551E+02	-1.106E+00	 1.708E-01	-2.518E-02	 6.437E+01	-9.606E-01	 2.966E+01	 3.115E+00	 3.139E-02	 9.891E-02	 2.462E-02	 3.611E-02	 7.034E-02	 7.173E-02	 4.027E+01	 2.375E+01	 4.559E+00	-7.350E-01	 1.817E+00	 4.235E+00	 3.756E+01	 4.116E-01	 4.087E-01
   10.4400	 1.039E+01	-6.000E+00	 0.000E+00	 1.617E+02	-1.117E+00	 1.702E-01	-2.611E-02	 6.457E+01	-9.548E-01	 2.946E+01	 3.148E+00	 3.190E-02	 9.963E-02	 2.572E-02	 3.561E-02	 4.638E-02	-1.025E-01	 4.040E+01	 2.148E+01	 4.489E+00	-1.174E+00	 1.625E+00	 4.260E+00	 3.740E+01	 2.195E-01	 2.162E-01
   10.4600	 1.039E+01	-6.000E+00	 0.000E+00	 1.682E+02	-1.115E+00	 1.692E-01	-2.703E-02	 6.466E+01	-9.645E-01	 2.779E+01	 3.185E+00	 3.242E-02	 1.003E-01	 2.646E-02	 3.175E-02	 2.977E-02	-2.546E-01	 4.005E+01	 1.900E+01	 4.322E+00	-1.632E+00	 1.495E+00	 4.291E+00	 3.704E+01	-3.262E-01	-3.298E-01
   10.4800	 1.039E+01	-6.000E+00	 0.000E+00	 1.747E+02	-1.101E+00	 1.677E-01	-2.784E-02	 6.465E+01	-1.061E+00	 2.201E+01	 3.470E+00	 3.296E-02	 1.009E-01	 2.700E-02	 2.723E-02	-5.118E-03	-2.163E-01	 3.910E+01	 1.658E+01	 4.105E+00	-2.086E+00	 1.527E+00	 4.658E+00	 3.670E+01	-9.029E-01	-9.066E-01
   10.5000	 1.039E+01	-6.000E+00	 0.000E+00	 1.812E+02	-1.079E+00	 1.649E-01	-2.848E-02	 6.401E+01	-1.104E+00	 3.389E+01	 3.683E+00	 3.349E-02	 1.014E-01	 2.577E-02	 2.194E-02	-8.656E-02	-3.200E-01	 3.700E+01	 1.314E+01	 3.686E+00	-2.622E+00	 9.818E-01	 4.946E+00	 3.585E+01	-2.022E+00	-2.026E+00
   10.5200	 1.039E+01	-6.000E+00	 0.000E+00	 1.877E+02	-1.050E+00	 1.605E-01	-2.908E-02	 6.293E+01	-8.077E-01	 3.158E+01	 3.146E+00	 3.398E-02	 1.018E-01	 2.396E-02	 2.053E-02	-1.127E-01	 1.550E-01	 3.835E+01	 9.910E+00	 4.089E+00	-3.058E+00	 4.779E-01	 4.425E+00	 3.465E+01	-2.766E+00	-2.770E+00
   10.5400	 1.039E+01	-6.000E+00	 0.000E+00	 1.942E+02	-9.967E-01	 1.583E-01	-2.948E-02	 6.876E+01	-2.597E+00	 2.961E+01	 3.205E+00	 3.443E-02	 1.023E-01	 2.047E-02	 2.581E-02	-2.239E-01	 3.468E-01	 3.952E+01	 9.286E+00	 4.182E+00	-3.331E+00	 5.410E-01	 3.896E+00	 3.477E+01	-2.355E+00	-2.358E+00
   10.5600	 1.039E+01	-6.000E+00	 0.000E+00	 2.008E+02	-9.273E-01	 1.590E-01	-2.999E-02	 7.024E+01	-3.718E+00	 2.839E+01	 3.626E+00	 3.479E-02	 1.028E-01	 1.541E-02	 3.143E-02	-2.633E-01	 1.399E-01	 4.015E+01	 9.332E+00	 4.223E+00	-3.624E+00	 7.139E-01	 3.577E+00	 3.589E+01	-1.889E+00	-1.891E+00
   10.5800	 1.039E+01	-6.000E+00	 0.000E+00	 2.073E+02	-8.464E-01	 1.622E-01	-3.093E-02	 6.652E+01	-3.585E+00	 2.857E+01	 3.970E+00	 3.505E-02	 1.035E-01	 1.032E-02	 2.940E-02	-2.362E-01	-3.615E-01	 3.986E+01	 8.405E+00	 4.087E+00	-4.014E+00	 7.199E-01	 3.566E+00	 3.689E+01	-2.203E+00	-2.205E+00
   10.6000	 1.039E+01	-6.000E+00	 0.000E+00	 2.138E+02	-7.537E-01	 1.668E-01	-3.227E-02	 6.269E+01	-3.009E+00	 2.954E+01	 4.026E+00	 3.521E-02	 1.039E-01	 6.049E-03	 1.814E-02	-1.886E-01	-6.966E-01	 3.920E+01	 6.185E+00	 3.836E+00	-4.467E+00	 5.069E-01	 3.793E+00	 3.705E+01	-3.336E+00	-3.336E+00
   10.6200	 1.039E+01	-6.000E+00	 0.000E+00	 2.203E+02	-6.514E-01	 1.709E-01	-3.381E-02	 6.129E+01	-2.370E+00	 3.013E+01	 3.820E+00	 3.530E-02	 1.042E-01	 2.610E-03	 4.998E-03	-1.619E-01	-5.308E-01	 3.910E+01	 3.172E+00	 3.717E+00	-4.931E+00	 1.487E-01	 4.031E+00	 3.648E+01	-4.784E+00	-4.783E+00
   10.6400	 1.039E+01	-6.000E+00	 0.000E+00	 2.268E+02	-5.417E-01	 1.736E-01	-3.526E-02	 6.235E+01	-1.982E+00	 2.984E+01	 3.574E+00	 3.532E-02	 1.042E-01	-8.197E-04	-6.484E-04	-1.901E-01	-9.876E-03	 3.986E+01	 4.685E-01	 3.815E+00	-5.337E+00	-1.726E-01	 4.147E+00	 3.587E+01	-5.894E+00	-5.893E+00
   10.6600	 1.039E+01	-6.000E+00	 0.000E+00	 2.333E+02	-4.258E-01	 1.752E-01	-3.632E-02	 6.445E+01	-2.144E+00	 2.913E+01	 3.525E+00	 3.526E-02	 1.042E-01	-5.239E-03	 3.802E-03	-2.527E-01	 3.985E-01	 4.098E+01	-1.003E+00	 4.006E+00	-5.632E+00	-2.999E-01	 4.186E+00	 3.578E+01	-6.339E+00	-6.337E+00
   10.6800	 1.039E+01	-6.000E+00	 0.000E+00	 2.398E+02	-3.042E-01	 1.765E-01	-3.690E-02	 6.557E+01	-2.780E+00	 2.871E+01	 3.739E+00	 3.510E-02	 1.044E-01	-1.073E-02	 1.217E-02	-2.855E-01	 3.570E-01	 4.181E+01	-1.232E+00	 4.147E+00	-5.818E+00	-2.362E-01	 4.245E+00	 3.625E+01	-6.254E+00	-6.251E+00
   10.7000	 1.039E+01	-6.000E+00	 0.000E+00	 2.464E+02	-1.783E-01	 1.782E-01	-3.716E-02	 6.502E+01	-3.544E+00	 2.882E+01	 4.065E+00	 3.483E-02	 1.047E-01	-1.609E-02	 1.546E-02	-2.356E-01	-6.257E-02	 4.211E+01	-9.569E-01	 4.187E+00	-5.942E+00	-1.118E-01	 4.363E+00	 3.686E+01	-6.019E+00	-6.016E+00
   10.7200	 1.039E+01	-6.000E+00	 0.000E+00	 2.529E+02	-4.929E-02	 1.801E-01	-3.736E-02	 6.385E+01	-4.062E+00	 2.918E+01	 4.282E+00	 3.447E-02	 1.049E-01	-1.959E-02	 9.634E-03	-1.062E-01	-4.845E-01	 4.210E+01	-9.837E-01	 4.171E+00	-6.053E+00	-6.201E-02	 4.499E+00	 3.716E+01	-5.918E+00	-5.914E+00
   10.7400	 1.039E+01	-6.000E+00	 0.000E+00	 2.594E+02	 8.149E-02	 1.818E-01	-3.772E-02	 6.342E+01	-4.078E+00	 2.937E+01	 4.264E+00	 3.406E-02	 1.050E-01	-2.021E-02	-1.635E-03	 3.889E-02	-5.732E-01	 4.212E+01	-1.626E+00	 4.172E+00	-6.179E+00	-1.366E-01	 4.584E+00	 3.711E+01	-5.931E+00	-5.927E+00
   10.7600	 1.039E+01	-6.000E+00	 0.000E+00	 2.659E+02	 2.120E-01	 1.830E-01	-3.826E-02	 6.398E+01	-3.603E+00	 2.920E+01	 4.058E+00	 3.368E-02	 1.049E-01	-1.846E-02	-1.086E-02	 1.199E-01	-3.034E-01	 4.226E+01	-2.591E+00	 4.219E+00	-6.309E+00	-2.836E-01	 4.588E+00	 3.693E+01	-5.833E+00	-5.829E+00
   10.7800	 1.039E+01	-6.000E+00	 0.000E+00	 2.724E+02	 3.401E-01	 1.836E-01	-3.878E-02	 6.485E+01	-2.958E+00	 2.890E+01	 3.828E+00	 3.333E-02	 1.046E-01	-1.603E-02	-1.312E-02	 1.082E-01	 6.978E-02	 4.238E+01	-3.271E+00	 4.288E+00	-6.399E+00	-3.993E-01	 4.538E+00	 3.692E+01	-5.447E+00	-5.443E+00
   10.8000	 1.039E+01	-6.000E+00	 0.000E+00	 2.789E+02	 4.633E-01	 1.839E-01	-3.901E-02	 6.532E+01	-2.556E+00	 2.872E+01	 3.711E+00	 3.303E-02	 1.044E-01	-1.445E-02	-9.451E-03	 4.831E-02	 2.494E-01	 4.230E+01	-3.215E+00	 4.336E+00	-6.406E+00	-4.077E-01	 4.483E+00	 3.715E+01	-4.786E+00	-4.782E+00
   10.8200	 1.039E+01	-6.000E+00	 0.000E+00	 2.854E+02	 5.796E-01	 1.838E-01	-3.883E-02	 6.520E+01	-2.586E+00	 2.875E+01	 3.728E+00	 3.275E-02	 1.043E-01	-1.391E-02	-5.210E-03	 1.546E-02	 1.332E-01	 4.198E+01	-2.412E+00	 4.354E+00	-6.313E+00	-3.106E-01	 4.447E+00	 3.746E+01	-3.993E+00	-3.990E+00
   10.8400	 1.039E+01	-6.000E+00	 0.000E+00	 2.920E+02	 6.870E-01	 1.833E-01	-3.828E-02	 6.493E+01	-2.905E+00	 2.886E+01	 3.791E+00	 3.247E-02	 1.042E-01	-1.332E-02	-5.203E-03	 5.528E-02	-1.381E-01	 4.156E+01	-1.204E+00	 4.367E+00	-6.142E+00	-1.661E-01	 4.427E+00	 3.767E+01	-3.210E+00	-3.208E+00
   10.8600	 1.039E+01	-6.000E+00	 0.000E+00	 2.985E+02	 7.844E-01	 1.823E-01	-3.757E-02	 6.507E+01	-3.159E+00	 2.894E+01	 3.792E+00	 3.222E-02	 1.040E-01	-1.133E-02	-1.023E-02	 1.467E-01	-3.364E-01	 4.118E+01	 2.144E-02	 4.400E+00	-5.927E+00	-3.533E-02	 4.411E+00	 3.769E+01	-2.468E+00	-2.467E+00
   10.8800	 1.039E+01	-6.000E+00	 0.000E+00	 3.050E+02	 8.706E-01	 1.809E-01	-3.690E-02	 6.567E+01	-3.059E+00	 2.897E+01	 3.691E+00	 3.203E-02	 1.037E-01	-7.537E-03	-1.725E-02	 2.252E-01	-3.298E-01	 4.090E+01	 1.101E+00	 4.457E+00	-5.697E+00	 5.552E-02	 4.393E+00	 3.761E+01	-1.720E+00	-1.720E+00
   10.9000	 1.039E+01	-6.000E+00	 0.000E+00	 3.115E+02	 9.449E-01	 1.795E-01	-3.630E-02	 6.631E+01	-2.614E+00	 2.901E+01	 3.528E+00	 3.193E-02	 1.033E-01	-2.735E-03	-2.227E-02	 2.426E-01	-1.557E-01	 4.065E+01	 2.162E+00	 4.523E+00	-5.449E+00	 1.229E-01	 4.381E+00	 3.757E+01	-9.750E-01	-9.756E-01
   10.9200	 1.039E+01	-6.000E+00	 0.000E+00	 3.180E+02	 1.007E+00	 1.785E-01	-3.571E-02	 6.658E+01	-2.063E+00	 2.909E+01	 3.378E+00	 3.192E-02	 1.029E-01	 1.721E-03	-2.334E-02	 1.945E-01	 3.644E-02	 4.035E+01	 3.427E+00	 4.570E+00	-5.165E+00	 2.109E-01	 4.374E+00	 3.760E+01	-3.105E-01	-3.120E-01
   10.9400	 1.039E+01	-6.000E+00	 0.000E+00	 3.245E+02	 1.055E+00	 1.780E-01	-3.501E-02	 6.632E+01	-1.638E+00	 2.916E+01	 3.282E+00	 3.199E-02	 1.024E-01	 4.873E-03	-2.149E-02	 1.215E-01	 1.255E-01	 3.999E+01	 5.040E+00	 4.604E+00	-4.828E+00	 3.456E-01	 4.366E+00	 3.767E+01	 1.708E-01	 1.686E-01
   10.9600	 1.039E+01	-6.000E+00	 0.000E+00	 3.311E+02	 1.090E+00	 1.780E-01	-3.416E-02	 6.578E+01	-1.447E+00	 2.922E+01	 3.247E+00	 3.210E-02	 1.020E-01	 6.646E-03	-1.951E-02	 6.497E-02	 6.059E-02	 3.956E+01	 7.001E+00	 4.588E+00	-4.424E+00	 5.276E-01	 4.348E+00	 3.768E+01	 3.669E-01	 3.642E-01
   10.9800	 1.039E+01	-6.000E+00	 0.000E+00	 3.376E+02	 1.111E+00	 1.782E-01	-3.319E-02	 6.531E+01	-1.413E+00	 2.918E+01	 3.228E+00	 3.225E-02	 1.016E-01	 7.688E-03	-1.941E-02	 4.465E-02	-5.470E-02	 3.916E+01	 9.139E+00	 4.576E+00	-3.979E+00	 7.296E-01	 4.321E+00	 3.762E+01	 3.336E-01	 3.304E-01
   11.0000	 1.039E+01	-6.000E+00	 0.000E+00	 3.441E+02	 1.118E+00	 1.786E-01	-3.221E-02	 6.538E+01	-1.271E+00	 2.928E+01	 3.219E+00	 3.241E-02	 1.012E-01	 8.447E-03	-2.209E-02	 3.851E-02	-1.808E-01	 3.860E+01	 1.134E+01	 4.478E+00	-3.475E+00	 9.351E-01	 4.294E+00	 3.740E+01	 2.926E-02	 2.581E-02
   11.0200	 1.039E+01	-6.000E+00	 0.000E+00	 3.506E+02	 1.113E+00	 1.797E-01	-3.130E-02	 6.713E+01	-1.726E-01	 2.966E+01	 3.240E+00	 3.259E-02	 1.007E-01	 9.209E-03	-2.681E-02	 3.679E-02	-2.418E-01	 3.765E+01	 1.361E+01	 4.326E+00	-2.891E+00	 1.155E+00	 4.283E+00	 3.696E+01	-6.251E-01	-6.287E-01
   11.0400	 1.039E+01	-6.000E+00	 0.000E+00	 3.571E+02	 1.096E+00	 1.803E-01	-2.982E-02	 4.270E+01	 3.781E+00	 3.026E+01	 3.363E+00	 3.278E-02	 1.002E-01	 9.677E-03	-2.975E-02	-2.194E-02	-1.587E-01	 3.633E+01	 1.576E+01	 4.416E+00	-2.444E+00	 1.318E+00	 4.255E+00	 3.674E+01	-1.097E+00	-1.101E+00
   11.0600	 1.039E+01	-6.000E+00	 0.000E+00	 3.654E+00	 1.074E+00	 1.769E-01	-2.724E-02	 5.945E+01	-3.019E+00	 3.062E+01	 3.522E+00	 3.296E-02	 9.952E-02	 8.587E-03	-3.384E-02	-4.505E-02	-6.322E-02	 3.460E+01	 1.851E+01	 4.011E+00	-1.847E+00	 1.615E+00	 4.237E+00	 3.540E+01	-2.483E+00	-2.487E+00
   11.0800	 1.039E+01	-6.000E+00	 0.000E+00	 1.017E+01	 1.037E+00	 1.706E-01	-2.556E-02	 6.934E+01	-3.944E+00	 2.904E+01	 3.089E+00	 3.312E-02	 9.888E-02	 7.270E-03	-2.946E-02	-1.098E-01	 3.914E-01	 3.512E+01	 2.000E+01	 4.342E+00	-1.407E+00	 1.721E+00	 3.987E+00	 3.457E+01	-2.706E+00	-2.709E+00
   11.1000	 1.039E+01	-6.000E+00	 0.000E+00	 1.668E+01	 9.776E-01	 1.637E-01	-2.513E-02	 7.203E+01	-1.493E+00	 2.767E+01	 2.525E+00	 3.324E-02	 9.838E-02	 4.093E-03	-1.977E-02	-1.903E-01	 5.039E-01	 3.622E+01	 2.064E+01	 4.798E+00	-1.214E+00	 1.665E+00	 3.732E+00	 3.521E+01	-2.082E+00	-2.085E+00
   11.1200	 1.039E+01	-6.000E+00	 0.000E+00	 2.320E+01	 9.041E-01	 1.596E-01	-2.502E-02	 7.267E+01	 8.396E-01	 2.783E+01	 2.188E+00	 3.328E-02	 9.807E-02	 1.351E-04	-1.222E-02	-1.903E-01	 1.840E-01	 3.632E+01	 2.190E+01	 4.945E+00	-1.017E+00	 1.733E+00	 3.809E+00	 3.641E+01	-1.837E+00	-1.839E+00
   11.1400	 1.039E+01	-6.000E+00	 0.000E+00	 2.971E+01	 8.188E-01	 1.588E-01	-2.444E-02	 7.017E+01	 1.800E+00	 2.918E+01	 2.227E+00	 3.325E-02	 9.783E-02	-3.237E-03	-1.340E-02	-1.413E-01	-2.871E-01	 3.551E+01	 2.396E+01	 4.834E+00	-6.798E-01	 1.923E+00	 4.119E+00	 3.714E+01	-2.481E+00	-2.482E+00
   11.1600	 1.039E+01	-6.000E+00	 0.000E+00	 3.623E+01	 7.219E-01	 1.604E-01	-2.325E-02	 6.593E+01	 1.296E+00	 3.025E+01	 2.471E+00	 3.316E-02	 9.749E-02	-5.519E-03	-2.141E-02	-8.831E-02	-4.293E-01	 3.482E+01	 2.641E+01	 4.704E+00	-2.045E-01	 2.168E+00	 4.402E+00	 3.696E+01	-3.812E+00	-3.812E+00
   11.1800	 1.039E+01	-6.000E+00	 0.000E+00	 4.274E+01	 6.162E-01	 1.631E-01	-2.188E-02	 6.368E+01	-4.863E-02	 3.033E+01	 2.670E+00	 3.303E-02	 9.699E-02	-7.062E-03	-2.710E-02	-7.487E-02	-6.826E-02	 3.494E+01	 2.885E+01	 4.691E+00	 3.136E-01	 2.415E+00	 4.511E+00	 3.627E+01	-5.207E+00	-5.206E+00
   11.2000	 1.039E+01	-6.000E+00	 0.000E+00	 4.926E+01	 5.035E-01	 1.659E-01	-2.093E-02	 6.406E+01	-9.236E-01	 2.959E+01	 2.667E+00	 3.287E-02	 9.647E-02	-8.918E-03	-2.283E-02	-1.179E-01	 4.865E-01	 3.579E+01	 3.075E+01	 4.813E+00	 7.345E-01	 2.595E+00	 4.460E+00	 3.580E+01	-6.086E+00	-6.085E+00
   11.2200	 1.039E+01	-6.000E+00	 0.000E+00	 5.577E+01	 3.845E-01	 1.687E-01	-2.077E-02	 6.504E+01	-5.139E-01	 2.881E+01	 2.467E+00	 3.267E-02	 9.614E-02	-1.188E-02	-9.602E-03	-1.749E-01	 7.609E-01	 3.679E+01	 3.183E+01	 4.972E+00	 9.793E-01	 2.661E+00	 4.371E+00	 3.593E+01	-6.301E+00	-6.299E+00
   11.2400	 1.039E+01	-6.000E+00	 0.000E+00	 6.228E+01	 2.603E-01	 1.716E-01	-2.121E-02	 6.509E+01	 8.121E-01	 2.862E+01	 2.197E+00	 3.239E-02	 9.609E-02	-1.555E-02	 4.274E-03	-1.785E-01	 5.548E-01	 3.739E+01	 3.226E+01	 5.053E+00	 1.082E+00	 2.636E+00	 4.360E+00	 3.650E+01	-6.119E+00	-6.116E+00
   11.2600	 1.039E+01	-6.000E+00	 0.000E+00	 6.880E+01	 1.321E-01	 1.743E-01	-2.174E-02	 6.410E+01	 2.050E+00	 2.901E+01	 2.000E+00	 3.205E-02	 9.626E-02	-1.840E-02	 1.076E-02	-9.318E-02	 8.435E-02	 3.756E+01	 3.246E+01	 5.040E+00	 1.141E+00	 2.583E+00	 4.436E+00	 3.702E+01	-5.926E+00	-5.922E+00
   11.2800	 1.039E+01	-6.000E+00	 0.000E+00	 7.531E+01	 1.125E-03	 1.765E-01	-2.192E-02	 6.298E+01	 2.408E+00	 2.949E+01	 1.954E+00	 3.167E-02	 9.647E-02	-1.885E-02	 8.606E-03	 5.172E-02	-2.450E-01	 3.761E+01	 3.282E+01	 5.002E+00	 1.237E+00	 2.569E+00	 4.522E+00	 3.717E+01	-5.897E+00	-5.894E+00
   11.3000	 1.039E+01	-6.000E+00	 0.000E+00	 8.183E+01	-1.309E-01	 1.776E-01	-2.164E-02	 6.269E+01	 1.793E+00	 2.969E+01	 2.052E+00	 3.132E-02	 9.659E-02	-1.644E-02	 3.531E-03	 1.778E-01	-1.953E-01	 3.785E+01	 3.350E+01	 4.994E+00	 1.381E+00	 2.624E+00	 4.552E+00	 3.702E+01	-5.911E+00	-5.908E+00
   11.3200	 1.039E+01	-6.000E+00	 0.000E+00	 8.834E+01	-2.617E-01	 1.775E-01	-2.113E-02	 6.331E+01	 7.558E-01	 2.960E+01	 2.221E+00	 3.103E-02	 9.664E-02	-1.230E-02	 2.716E-03	 2.184E-01	 1.397E-01	 3.827E+01	 3.429E+01	 5.017E+00	 1.518E+00	 2.722E+00	 4.523E+00	 3.687E+01	-5.727E+00	-5.724E+00
   11.3400	 1.039E+01	-6.000E+00	 0.000E+00	 9.486E+01	-3.890E-01	 1.767E-01	-2.075E-02	 6.418E+01	 3.368E-03	 2.949E+01	 2.376E+00	 3.082E-02	 9.674E-02	-8.271E-03	 8.937E-03	 1.743E-01	 4.547E-01	 3.869E+01	 3.480E+01	 5.036E+00	 1.575E+00	 2.797E+00	 4.479E+00	 3.694E+01	-5.232E+00	-5.229E+00
   11.3600	 1.039E+01	-6.000E+00	 0.000E+00	 1.014E+02	-5.105E-01	 1.757E-01	-2.072E-02	 6.468E+01	-1.082E-01	 2.959E+01	 2.465E+00	 3.069E-02	 9.702E-02	-5.471E-03	 1.900E-02	 1.084E-01	 5.005E-01	 3.893E+01	 3.468E+01	 5.012E+00	 1.518E+00	 2.789E+00	 4.455E+00	 3.722E+01	-4.502E+00	-4.500E+00
   11.3800	 1.039E+01	-6.000E+00	 0.000E+00	 1.079E+02	-6.240E-01	 1.747E-01	-2.106E-02	 6.476E+01	 2.392E-01	 2.984E+01	 2.486E+00	 3.060E-02	 9.749E-02	-3.577E-03	 2.708E-02	 9.304E-02	 2.757E-01	 3.901E+01	 3.393E+01	 4.952E+00	 1.361E+00	 2.693E+00	 4.450E+00	 3.751E+01	-3.698E+00	-3.696E+00
   11.4000	 1.039E+01	-6.000E+00	 0.000E+00	 1.144E+02	-7.280E-01	 1.740E-01	-2.157E-02	 6.467E+01	 5.963E-01	 3.003E+01	 2.488E+00	 3.055E-02	 9.806E-02	-1.245E-03	 2.952E-02	 1.499E-01	-2.329E-02	 3.908E+01	 3.279E+01	 4.883E+00	 1.153E+00	 2.551E+00	 4.431E+00	 3.764E+01	-2.928E+00	-2.927E+00
   11.4200	 1.039E+01	-6.000E+00	 0.000E+00	 1.209E+02	-8.211E-01	 1.734E-01	-2.209E-02	 6.463E+01	 5.931E-01	 3.001E+01	 2.529E+00	 3.056E-02	 9.864E-02	 2.616E-03	 2.711E-02	 2.351E-01	-1.834E-01	 3.924E+01	 3.158E+01	 4.826E+00	 9.348E-01	 2.421E+00	 4.377E+00	 3.760E+01	-2.181E+00	-2.180E+00
   11.4400	 1.039E+01	-6.000E+00	 0.000E+00	 1.274E+02	-9.025E-01	 1.730E-01	-2.252E-02	 6.462E+01	 1.878E-01	 2.982E+01	 2.633E+00	 3.066E-02	 9.914E-02	 7.916E-03	 2.363E-02	 2.847E-01	-1.332E-01	 3.949E+01	 3.047E+01	 4.785E+00	 7.059E-01	 2.330E+00	 4.301E+00	 3.752E+01	-1.424E+00	-1.424E+00
   11.4600	 1.039E+01	-6.000E+00	 0.000E+00	 1.340E+02	-9.717E-01	 1.727E-01	-2.293E-02	 6.452E+01	-3.613E-01	 2.962E+01	 2.781E+00	 3.088E-02	 9.960E-02	 1.351E-02	 2.258E-02	 2.627E-01	 3.229E-02	 3.975E+01	 2.935E+01	 4.748E+00	 4.508E-01	 2.260E+00	 4.234E+00	 3.749E+01	-6.895E-01	-6.905E-01
   11.4800	 1.039E+01	-6.000E+00	 0.000E+00	 1.405E+02	-1.028E+00	 1.724E-01	-2.345E-02	 6.438E+01	-7.947E-01	 2.955E+01	 2.927E+00	 3.120E-02	 1.001E-01	 1.805E-02	 2.467E-02	 1.857E-01	 1.581E-01	 3.998E+01	 2.802E+01	 4.702E+00	 1.457E-01	 2.174E+00	 4.204E+00	 3.754E+01	-7.264E-02	-7.444E-02
   11.5000	 1.039E+01	-6.000E+00	 0.000E+00	 1.470E+02	-1.071E+00	 1.720E-01	-2.415E-02	 6.432E+01	-9.973E-01	 2.957E+01	 3.037E+00	 3.159E-02	 1.006E-01	 2.090E-02	 2.806E-02	 1.017E-01	 1.493E-01	 4.017E+01	 2.634E+01	 4.648E+00	-2.183E-01	 2.043E+00	 4.212E+00	 3.760E+01	 3.168E-01	 3.144E-01
   11.5200	 1.039E+01	-6.000E+00	 0.000E+00	 1.535E+02	-1.099E+00	 1.714E-01	-2.501E-02	 6.432E+01	-9.772E-01	 2.959E+01	 3.095E+00	 3.202E-02	 1.012E-01	 2.232E-02	 2.978E-02	 4.958E-02	 1.873E-02	 4.035E+01	 2.430E+01	 4.597E+00	-6.293E-01	 1.865E+00	 4.239E+00	 3.758E+01	 4.100E-01	 4.071E-01
   11.5400	 1.039E+01	-6.000E+00	 0.000E+00	 1.600E+02	-1.114E+00	 1.708E-01	-2.594E-02	 6.455E+01	-9.698E-01	 2.941E+01	 3.127E+00	 3.248E-02	 1.018E-01	 2.301E-02	 2.846E-02	 2.339E-02	-1.547E-01	 4.049E+01	 2.205E+01	 4.527E+00	-1.065E+00	 1.674E+00	 4.265E+00	 3.745E+01	 2.724E-01	 2.691E-01
   11.5600	 1.039E+01	-6.000E+00	 0.000E+00	 1.665E+02	-1.114E+00	 1.700E-01	-2.686E-02	 6.462E+01	-9.760E-01	 2.853E+01	 3.173E+00	 3.294E-02	 1.023E-01	 2.334E-02	 2.381E-02	 1.205E-02	-2.895E-01	 4.035E+01	 1.965E+01	 4.409E+00	-1.517E+00	 1.511E+00	 4.282E+00	 3.717E+01	-1.532E-01	-1.567E-01
   11.5800	 1.039E+01	-6.000E+00	 0.000E+00	 1.731E+02	-1.104E+00	 1.686E-01	-2.771E-02	 6.446E+01	-9.516E-01	 2.282E+01	 3.314E+00	 3.341E-02	 1.027E-01	 2.355E-02	 1.749E-02	-5.235E-03	-2.997E-01	 3.961E+01	 1.715E+01	 4.215E+00	-1.974E+00	 1.534E+00	 4.567E+00	 3.677E+01	-8.102E-01	-8.140E-01
   11.6000	 1.039E+01	-6.000E+00	 0.000E+00	 1.796E+02	-1.083E+00	 1.663E-01	-2.837E-02	 6.477E+01	-1.364E+00	 3.137E+01	 3.836E+00	 3.387E-02	 1.030E-01	 2.248E-02	 1.174E-02	-9.955E-02	-3.850E-01	 3.742E+01	 1.425E+01	 3.736E+00	-2.489E+00	 1.158E+00	 4.954E+00	 3.629E+01	-1.610E+00	-1.614E+00
   11.6200	 1.039E+01	-6.000E+00	 0.000E+00	 1.861E+02	-1.058E+00	 1.618E-01	-2.900E-02	 6.192E+01	-5.464E-01	 3.290E+01	 3.244E+00	 3.430E-02	 1.032E-01	 2.042E-02	 6.985E-03	-1.032E-01	 2.253E-02	 3.819E+01	 1.050E+01	 4.080E+00	-2.971E+00	 5.206E-01	 4.585E+00	 3.494E+01	-2.692E+00	-2.696E+00
   11.6400	 1.039E+01	-6.000E+00	 0.000E+00	 1.926E+02	-1.011E+00	 1.589E-01	-2.943E-02	 6.743E+01	-2.111E+00	 3.008E+01	 3.124E+00	 3.468E-02	 1.033E-01	 1.723E-02	 1.020E-02	-2.123E-01	 2.845E-01	 3.930E+01	 9.267E+00	 4.172E+00	-3.270E+00	 4.960E-01	 4.024E+00	 3.461E+01	-2.538E+00	-2.541E+00
   11.6600	 1.039E+01	-6.000E+00	 0.000E+00	 1.991E+02	-9.454E-01	 1.588E-01	-2.987E-02	 7.053E+01	-3.590E+00	 2.858E+01	 3.509E+00	 3.498E-02	 1.036E-01	 1.221E-02	 1.595E-02	-2.701E-01	 2.078E-01	 4.015E+01	 9.378E+00	 4.240E+00	-3.544E+00	 6.795E-01	 3.640E+00	 3.560E+01	-1.954E+00	-1.956E+00
   11.6800	 1.039E+01	-6.000E+00	 0.000E+00	 2.056E+02	-8.676E-01	 1.614E-01	-3.068E-02	 6.770E+01	-3.701E+00	 2.840E+01	 3.904E+00	 3.517E-02	 1.039E-01	 6.878E-03	 1.601E-02	-2.513E-01	-2.433E-01	 4.008E+01	 8.779E+00	 4.155E+00	-3.908E+00	 7.406E-01	 3.543E+00	 3.673E+01	-2.030E+00	-2.032E+00
   11.7000	 1.039E+01	-6.000E+00	 0.000E+00	 2.122E+02	-7.780E-01	 1.659E-01	-3.194E-02	 6.347E+01	-3.184E+00	 2.929E+01	 4.042E+00	 3.526E-02	 1.042E-01	 2.323E-03	 6.506E-03	-2.005E-01	-6.587E-01	 3.941E+01	 6.872E+00	 3.905E+00	-4.350E+00	 5.814E-01	 3.728E+00	 3.713E+01	-2.984E+00	-2.985E+00
   11.7200	 1.039E+01	-6.000E+00	 0.000E+00	 2.187E+02	-6.779E-01	 1.703E-01	-3.346E-02	 6.139E+01	-2.523E+00	 3.007E+01	 3.886E+00	 3.527E-02	 1.042E-01	-1.228E-03	-7.154E-03	-1.594E-01	-6.161E-01	 3.908E+01	 3.962E+00	 3.730E+00	-4.818E+00	 2.445E-01	 3.983E+00	 3.669E+01	-4.422E+00	-4.421E+00
   11.7400	 1.039E+01	-6.000E+00	 0.000E+00	 2.252E+02	-5.701E-01	 1.733E-01	-3.496E-02	 6.187E+01	-2.022E+00	 3.000E+01	 3.624E+00	 3.521E-02	 1.039E-01	-4.428E-03	-1.511E-02	-1.703E-01	-1.339E-01	 3.963E+01	 1.058E+00	 3.776E+00	-5.246E+00	-1.074E-01	 4.131E+00	 3.602E+01	-5.670E+00	-5.669E+00
   11.7600	 1.039E+01	-6.000E+00	 0.000E+00	 2.317E+02	-4.556E-01	 1.750E-01	-3.613E-02	 6.391E+01	-2.039E+00	 2.933E+01	 3.510E+00	 3.509E-02	 1.036E-01	-8.372E-03	-1.245E-02	-2.278E-01	 3.611E-01	 4.072E+01	-7.678E-01	 3.956E+00	-5.571E+00	-2.907E-01	 4.180E+00	 3.577E+01	-6.286E+00	-6.284E+00
   11.7800	 1.039E+01	-6.000E+00	 0.000E+00	 2.382E+02	-3.354E-01	 1.763E-01	-3.682E-02	 6.545E+01	-2.594E+00	 2.879E+01	 3.667E+00	 3.487E-02	 1.035E-01	-1.345E-02	-3.446E-03	-2.726E-01	 4.564E-01	 4.165E+01	-1.252E+00	 4.116E+00	-5.781E+00	-2.647E-01	 4.226E+00	 3.612E+01	-6.298E+00	-6.295E+00
   11.8000	 1.039E+01	-6.000E+00	 0.000E+00	 2.447E+02	-2.104E-01	 1.778E-01	-3.712E-02	 6.530E+01	-3.376E+00	 2.878E+01	 3.991E+00	 3.455E-02	 1.035E-01	-1.876E-02	 2.769E-03	-2.427E-01	 1.130E-01	 4.206E+01	-1.006E+00	 4.178E+00	-5.913E+00	-1.390E-01	 4.329E+00	 3.674E+01	-6.060E+00	-6.057E+00
   11.8200	 1.039E+01	-6.000E+00	 0.000E+00	 2.512E+02	-8.192E-02	 1.796E-01	-3.730E-02	 6.416E+01	-3.995E+00	 2.912E+01	 4.257E+00	 3.413E-02	 1.035E-01	-2.255E-02	 2.990E-04	-1.251E-01	-3.416E-01	 4.209E+01	-8.919E-01	 4.167E+00	-6.022E+00	-5.961E-02	 4.466E+00	 3.715E+01	-5.913E+00	-5.910E+00
   11.8400	 1.039E+01	-6.000E+00	 0.000E+00	 2.578E+02	 4.877E-02	 1.813E-01	-3.759E-02	 6.346E+01	-4.150E+00	 2.939E+01	 4.303E+00	 3.366E-02	 1.034E-01	-2.350E-02	-9.039E-03	 2.786E-02	-5.253E-01	 4.206E+01	-1.382E+00	 4.156E+00	-6.144E+00	-1.037E-01	 4.569E+00	 3.717E+01	-5.917E+00	-5.913E+00
   11.8600	 1.039E+01	-6.000E+00	 0.000E+00	 2.643E+02	 1.798E-01	 1.825E-01	-3.809E-02	 6.382E+01	-3.774E+00	 2.931E+01	 4.132E+00	 3.321E-02	 1.032E-01	-2.175E-02	-1.812E-02	 1.330E-01	-3.244E-01	 4.215E+01	-2.324E+00	 4.187E+00	-6.276E+00	-2.422E-01	 4.592E+00	 3.698E+01	-5.875E+00	-5.871E+00
   11.8800	 1.039E+01	-6.000E+00	 0.000E+00	 2.708E+02	 3.090E-01	 1.832E-01	-3.863E-02	 6.470E+01	-3.126E+00	 2.901E+01	 3.891E+00	 3.280E-02	 1.028E-01	-1.882E-02	-2.083E-02	 1.437E-01	 6.025E-02	 4.229E+01	-3.140E+00	 4.252E+00	-6.381E+00	-3.765E-01	 4.550E+00	 3.691E+01	-5.573E+00	-5.569E+00
   11.9000	 1.039E+01	-6.000E+00	 0.000E+00	 2.773E+02	 4.340E-01	 1.835E-01	-3.896E-02	 6.533E+01	-2.629E+00	 2.879E+01	 3.738E+00	 3.245E-02	 1.024E-01	-1.643E-02	-1.665E-02	 8.923E-02	 3.160E-01	 4.226E+01	-3.293E+00	 4.306E+00	-6.412E+00	-4.156E-01	 4.491E+00	 3.708E+01	-4.974E+00	-4.971E+00