
FAST Summary File

Predictions were generated on 21-May-2014 at 21:23:11 using FAST (v8.07.00b-bjj, 15-May-2014), compiled for 32-bit systems using single precision
  compiled with
    NWTC Subroutine Library (v2.03.00d-bjj, 22-Jan-2014)
    ElastoDyn (v1.01.06a-bjj, 2-May-2014)
    ServoDyn (v1.01.02a-bjj, 31-Jan-2014)
    AeroDyn (v14.02.01b-bjj, 29-Jan-2014)
    InflowWind (v2.00.01a-bjj, 22-Jan-2014)
    HydroDyn (v2.00.05c-gjh, 15-May-2014)
    SubDyn (v1.00.00c-bjj, 20-May-2014)
    MAP (unknown version, unknown date) [not called]
    FEAMooring (unknown version, unknown date) [not called]
    IceFloe (unknown version, unknown date) [not called]


Modeling a fixed-bottom offshore turbine
Description from the FAST input file: 
  FAST Certification Test #21: NREL 5.0 MW Baseline Offshore Turbine with OC4 Jacket Configuration

Interpolation order for input/output time histories: 2 (quadratic)
Number of correction iterations:  0
Number of rows in Jacobian matrix used for coupling ElastoDyn, SubDyn, and HydroDyn:   9090


   Requested Time Steps  
  -------------------------------------------------
  Component          Time Step (s)    Subcycles (-)
  -----------------  ---------------  -------------
  FAST (glue code)    1.000E-02
  ElastoDyn           1.000E-02              1
  AeroDyn             1.000E-02              1
  ServoDyn            1.000E-02              1
  HydroDyn            1.000E-02              1
  SubDyn              1.000E-02              1
  FAST output files   5.000E-02              5^-1


   Requested Channels in FAST Output File(s)  
  --------------------------------------------
  Number  Name        Units       Generated by
  ------  ----------  ----------  ------------
       1  Time        (s)         FAST
       2  WindVxi     (m/s)       InflowWind
       3  WindVyi     (m/s)       InflowWind
       4  WindVzi     (m/s)       InflowWind
       5  RotThrust   (kN)        ElastoDyn
       6  TwrBsFxt    (kN)        ElastoDyn
       7  TwrBsFyt    (kN)        ElastoDyn
       8  TwrBsFzt    (kN)        ElastoDyn
       9  TwrBsMzt    (kN·m)      ElastoDyn
      10  PtfmSurge   (m)         ElastoDyn
      11  PtfmSway    (m)         ElastoDyn
      12  PtfmHeave   (m)         ElastoDyn
      13  PtfmRoll    (deg)       ElastoDyn
      14  PtfmPitch   (deg)       ElastoDyn
      15  PtfmYaw     (deg)       ElastoDyn
      16  GenPwr      (kW)        ServoDyn
      17  GenTq       (kN·m)      ServoDyn
      18  Wave1Elev   (m)         HydroDyn
      19  M1N1FAxi    (N/m)       HydroDyn
      20  M1N1FAyi    (N/m)       HydroDyn
      21  M1N1FAzi    (N/m)       HydroDyn
      22  M1N1DynP    (Pa)        HydroDyn
      23  M1N1FDPxi   (N/m)       HydroDyn
      24  M1N1FDPyi   (N/m)       HydroDyn
      25  M1N1FDPzi   (N/m)       HydroDyn
      26  M1N1FDxi    (N/m)       HydroDyn
      27  M1N1FDyi    (N/m)       HydroDyn
      28  M1N1FDzi    (N/m)       HydroDyn
      29  M1N1FIxi    (N/m)       HydroDyn
      30  M1N1FIyi    (N/m)       HydroDyn
      31  M1N1FIzi    (N/m)       HydroDyn
      32  M1N1FBxi    (N/m)       HydroDyn
      33  M1N1FByi    (N/m)       HydroDyn
      34  M1N1FBzi    (N/m)       HydroDyn
      35  M1N1MBxi    (N)         HydroDyn
      36  M1N1MByi    (N)         HydroDyn
      37  M1N1MBzi    (N)         HydroDyn
      38  M1N1FBFxi   (N/m)       HydroDyn
      39  M1N1FBFyi   (N/m)       HydroDyn
      40  M1N1FBFzi   (N/m)       HydroDyn
      41  M1N1MBFxi   (N)         HydroDyn
      42  M1N1MBFyi   (N)         HydroDyn
      43  M1N1MBFzi   (N)         HydroDyn
      44  J1DynP      (Pa)        HydroDyn
      45  J1FDPxi     (N)         HydroDyn
      46  J1FDPyi     (N)         HydroDyn
      47  J1FDPzi     (N)         HydroDyn
      48  J1FDxi      (N)         HydroDyn
      49  J1FDyi      (N)         HydroDyn
      50  J1FDzi      (N)         HydroDyn
      51  J1FBxi      (N)         HydroDyn
      52  J1FByi      (N)         HydroDyn
      53  J1FBzi      (N)         HydroDyn
      54  J1MBxi      (N-m)       HydroDyn
      55  J1MByi      (N-m)       HydroDyn
      56  J1MBzi      (N-m)       HydroDyn
      57  J1FBFxi     (N)         HydroDyn
      58  J1FBFyi     (N)         HydroDyn
      59  J1FBFzi     (N)         HydroDyn
      60  J1MBFxi     (N-m)       HydroDyn
      61  J1MBFxi     (N-m)       HydroDyn
      62  J1MBFyi     (N-m)       HydroDyn
      63  J1MBFyi     (N-m)       HydroDyn
      64  J1MBFzi     (N-m)       HydroDyn
      65  -ReactFXss  (N)         SubDyn
      66  -ReactFYss  (N)         SubDyn
      67  -ReactMXss  (Nm)        SubDyn
      68  -ReactMYss  (Nm)        SubDyn
      69  -ReactMZss  (Nm)        SubDyn
      70  -ReactFZss  (N)         SubDyn
      71  M1N1FKZe    (N)         SubDyn
      72  M2N1FKZe    (N)         SubDyn
      73  -M3N1TDXss  (m)         SubDyn
      74  -M4N1TDYss  (m)         SubDyn
      75  -M5N1TDXss  (m)         SubDyn
      76  -M6N1TDYss  (m)         SubDyn
      77  M7N1FKZe    (N)         SubDyn
      78  -M7N1FKXe   (N)         SubDyn
      79  M8N1FKZe    (N)         SubDyn
      80  -M8N1FKYe   (N)         SubDyn
      81  M9N1FKZe    (N)         SubDyn
      82  M9N1FKZe    (N)         SubDyn
