
Predictions were generated on 27-Apr-2015 at 13:26:42 using FAST (v8.11.01a-bjj, 21-Apr-2015), compiled as a 32-bit application using single precision
 linked with  NWTC Subroutine Library (v2.05.03a-bjj, 16-Apr-2015); ElastoDyn (v1.02.00a-bjj, 31-Mar-2015); InflowWind (v3.00.01a-adp, 27-Apr-2015); AeroDyn (v14.04.00a-bjj, 14-Apr-2015); ServoDyn (v1.02.00a-bjj, 31-Mar-2015)

Description from the FAST input file: FAST Certification Test #08: AOC 15/50 with many DOFs with fixed yaw error and steady wind. Many parameters are pure fiction.

Time      	Wind1VelX 	Wind1VelY 	Wind1VelZ 	LSSGagPxa 	TipDxb1   	TipDxb2   	TipDyb1   	TipDyb2   	RollDefl1 	RollDefl2 	PtchDefl1 	PtchDefl2 	Spn1ALxb1 	Spn1ALyb1 	HSShftV   	TTDspRoll 	TTDspPtch 	YawBrRVxp 	YawBrRVyp 	YawBrRAxp 	YawBrRAyp 	RootFxb1  	RootFyb1  	Spn2MLxb1 	Spn2MLyb1 	LSShftFya 	LSShftFza 	YawBrFxn  	YawBrFyn  
(s)       	(m/s)     	(m/s)     	(m/s)     	(deg)     	(m)       	(m)       	(m)       	(m)       	(deg)     	(deg)     	(deg)     	(deg)     	(m/s^2)   	(m/s^2)   	(rpm)     	(deg)     	(deg)     	(deg/s)   	(deg/s)   	(deg/s^2) 	(deg/s^2) 	(kN)      	(kN)      	(kN·m)    	(kN·m)    	(kN)      	(kN)      	(kN)      	(kN)      
   10.0000	 9.526E+00	-5.500E+00	 0.000E+00	 2.484E+02	 1.057E-02	-7.865E-03	 1.722E-03	-2.723E-03	-2.689E-02	 3.650E-02	 1.010E-01	-2.210E-01	 4.956E+00	 5.420E-01	 1.812E+03	 3.869E-02	 1.052E-01	-4.615E-03	-5.457E-02	-5.012E-01	-1.450E+00	 3.407E-01	 8.468E-01	-3.123E-01	 4.315E-01	 6.041E+00	 2.391E+00	 6.640E+00	-9.299E-02
   10.0500	 9.526E+00	-5.500E+00	 0.000E+00	 2.676E+02	 6.141E-03	-8.631E-03	 2.368E-03	-4.885E-03	-3.605E-02	 6.715E-02	 1.172E-02	-2.258E-01	 5.041E+00	 6.029E-01	 1.812E+03	 3.802E-02	 1.015E-01	-2.136E-02	-8.000E-02	-3.502E-01	 1.910E-01	 2.411E-01	 9.440E-01	-3.827E-01	 2.415E-01	 6.458E+00	 1.886E-01	 6.348E+00	-1.306E-01
   10.1000	 9.526E+00	-5.500E+00	 0.000E+00	 2.869E+02	 5.181E-04	-5.520E-03	 2.532E-03	-6.413E-03	-3.810E-02	 8.862E-02	-8.733E-02	-1.660E-01	 5.186E+00	 5.855E-01	 1.812E+03	 3.652E-02	 9.717E-02	-3.779E-02	-1.092E-01	-1.641E-01	-1.125E+00	 6.200E-02	 9.066E-01	-3.581E-01	 3.592E-02	 6.220E+00	-1.943E+00	 6.040E+00	-1.015E-01
   10.1500	 9.526E+00	-5.500E+00	 0.000E+00	 3.061E+02	-5.701E-04	-3.395E-03	 1.623E-03	-7.610E-03	-2.531E-02	 1.054E-01	-1.074E-01	-1.277E-01	 5.327E+00	 6.383E-01	 1.812E+03	 3.478E-02	 9.214E-02	-3.249E-02	-7.719E-02	-2.855E-01	-1.483E-01	 1.213E-02	 6.965E-01	-2.122E-01	 8.531E-04	 5.209E+00	-3.951E+00	 5.656E+00	-1.267E-01
   10.2000	 9.526E+00	-5.500E+00	 0.000E+00	 3.254E+02	 1.341E-04	-4.882E-03	 6.929E-04	-8.176E-03	-1.174E-02	 1.130E-01	-7.468E-02	-1.690E-01	 5.427E+00	 6.797E-01	 1.812E+03	 3.308E-02	 8.765E-02	-2.513E-02	-7.222E-02	 4.394E-01	 1.914E+00	-5.633E-02	 4.209E-01	-9.232E-02	 4.627E-02	 3.742E+00	-5.403E+00	 5.307E+00	-4.174E-02
   10.2500	 9.526E+00	-5.500E+00	 0.000E+00	 3.446E+02	-3.675E-03	-6.901E-03	-1.038E-03	-7.657E-03	 1.288E-02	 1.053E-01	-1.373E-01	-2.231E-01	 5.501E+00	 6.695E-01	 1.812E+03	 3.164E-02	 8.495E-02	-3.269E-02	-4.459E-02	 4.521E-01	 1.489E+00	-2.306E-01	-8.937E-03	 2.018E-01	-7.822E-02	 1.704E+00	-6.248E+00	 5.328E+00	-1.215E-02
   10.3000	 9.526E+00	-5.500E+00	 0.000E+00	 3.853E+00	-9.328E-03	-5.643E-03	-2.224E-03	-7.174E-03	 2.972E-02	 9.836E-02	-2.404E-01	-2.061E-01	 5.491E+00	 6.303E-01	 1.812E+03	 3.085E-02	 8.520E-02	-5.302E-03	 3.440E-02	 8.073E-02	 4.278E-02	-4.151E-01	-4.168E-01	 3.965E-01	-2.801E-01	-4.049E-01	-6.477E+00	 5.474E+00	 3.391E-02
   10.3500	 9.526E+00	-5.500E+00	 0.000E+00	 2.310E+01	-1.053E-02	-2.157E-03	-4.200E-03	-5.902E-03	 5.752E-02	 8.051E-02	-2.628E-01	-1.373E-01	 5.447E+00	 5.966E-01	 1.812E+03	 3.092E-02	 8.754E-02	 1.159E-02	 7.438E-02	 3.813E-01	 1.472E+00	-4.763E-01	-8.849E-01	 6.956E-01	-3.025E-01	-2.518E+00	-5.905E+00	 5.512E+00	 6.037E-02
   10.4000	 9.526E+00	-5.500E+00	 0.000E+00	 4.234E+01	-6.471E-03	-9.109E-04	-6.069E-03	-4.322E-03	 8.372E-02	 5.832E-02	-1.870E-01	-1.116E-01	 5.232E+00	 5.918E-01	 1.812E+03	 3.184E-02	 9.254E-02	 2.263E-02	 1.034E-01	 1.486E-01	-8.649E-01	-3.711E-01	-1.286E+00	 9.178E-01	-1.404E-01	-4.388E+00	-4.814E+00	 5.774E+00	 8.155E-02
   10.4500	 9.526E+00	-5.500E+00	 0.000E+00	 6.158E+01	-2.232E-03	-3.452E-03	-7.358E-03	-2.035E-03	 1.020E-01	 2.691E-02	-1.007E-01	-1.323E-01	 5.167E+00	 5.552E-01	 1.812E+03	 3.340E-02	 9.742E-02	 4.229E-02	 1.146E-01	 2.106E-01	 1.018E+00	-3.013E-01	-1.569E+00	 1.056E+00	 2.003E-02	-5.761E+00	-3.026E+00	 5.850E+00	 1.772E-02
   10.5000	 9.526E+00	-5.500E+00	 0.000E+00	 8.082E+01	-2.680E-03	-5.366E-03	-8.287E-03	-3.920E-04	 1.146E-01	 2.970E-03	-1.270E-01	-2.023E-01	 5.090E+00	 6.040E-01	 1.812E+03	 3.537E-02	 1.020E-01	 3.992E-02	 6.041E-02	 3.767E-01	-1.316E-01	-2.888E-01	-1.765E+00	 1.183E+00	-1.887E-02	-6.540E+00	-1.057E+00	 6.155E+00	 3.386E-02
   10.5500	 9.526E+00	-5.500E+00	 0.000E+00	 1.001E+02	-5.323E-03	 1.707E-03	-7.831E-03	 5.076E-04	 1.077E-01	-1.030E-02	-1.938E-01	-8.958E-02	 5.008E+00	 6.202E-01	 1.812E+03	 3.716E-02	 1.045E-01	 1.953E-02	 1.678E-02	-6.275E-01	-1.421E+00	-3.268E-01	-1.730E+00	 1.118E+00	-1.248E-01	-6.415E+00	 1.141E+00	 6.507E+00	-3.119E-02
   10.6000	 9.526E+00	-5.500E+00	 0.000E+00	 1.193E+02	-5.540E-03	 9.799E-03	-7.419E-03	 1.646E-03	 1.017E-01	-2.568E-02	-2.061E-01	 9.131E-02	 5.022E+00	 6.149E-01	 1.812E+03	 3.802E-02	 1.049E-01	 1.496E-02	 1.467E-03	-4.670E-01	-1.308E+00	-2.991E-01	-1.606E+00	 1.064E+00	-1.396E-01	-5.701E+00	 3.221E+00	 6.601E+00	-7.619E-02
   10.6500	 9.526E+00	-5.500E+00	 0.000E+00	 1.385E+02	-2.627E-03	 9.350E-03	-6.280E-03	 1.918E-03	 8.580E-02	-2.899E-02	-1.475E-01	 1.024E-01	 5.040E+00	 5.763E-01	 1.812E+03	 3.818E-02	 1.033E-01	-4.434E-03	-5.317E-02	-2.319E-01	-2.949E-01	-2.187E-01	-1.304E+00	 8.766E-01	-3.319E-02	-4.250E+00	 4.852E+00	 6.462E+00	-9.354E-02
   10.7000	 9.526E+00	-5.500E+00	 0.000E+00	 1.578E+02	-8.317E-04	 2.533E-03	-4.700E-03	 2.679E-03	 6.361E-02	-4.044E-02	-1.112E-01	-5.844E-02	 5.123E+00	 5.932E-01	 1.812E+03	 3.752E-02	 1.004E-01	-2.297E-02	-6.496E-02	-3.788E-01	-8.048E-01	-1.774E-01	-9.030E-01	 6.438E-01	 2.673E-02	-2.399E+00	 6.061E+00	 6.261E+00	-1.173E-01
   10.7500	 9.526E+00	-5.500E+00	 0.000E+00	 1.770E+02	-2.212E-03	-9.040E-04	-2.717E-03	 2.118E-03	 3.645E-02	-3.276E-02	-1.106E-01	-1.331E-01	 5.101E+00	 6.357E-01	 1.812E+03	 3.611E-02	 9.602E-02	-2.784E-02	-9.198E-02	 1.677E-01	 9.268E-01	-2.024E-01	-4.435E-01	 3.860E-01	-1.093E-01	-2.641E-01	 6.465E+00	 5.888E+00	-1.122E-01
   10.8000	 9.526E+00	-5.500E+00	 0.000E+00	 1.963E+02	-5.832E-03	 4.402E-04	-5.464E-04	 1.141E-03	 4.379E-03	-1.813E-02	-2.407E-01	-7.190E-02	 5.287E+00	 5.995E-01	 1.812E+03	 3.462E-02	 9.197E-02	-3.409E-02	-9.765E-02	 1.823E-01	-4.644E-01	-1.417E-01	 2.842E-02	 1.044E-01	-1.742E-01	 1.918E+00	 6.322E+00	 5.671E+00	-8.182E-02
   10.8500	 9.526E+00	-5.500E+00	 0.000E+00	 2.155E+02	-3.367E-04	-8.968E-04	 1.471E-04	-1.978E-04	-5.138E-03	 1.169E-03	-1.253E-01	-7.973E-02	 5.327E+00	 6.302E-01	 1.812E+03	 3.325E-02	 8.813E-02	-3.087E-02	-6.020E-02	-5.796E-01	-3.221E-01	 1.558E-02	 3.590E-01	-1.072E-02	 4.473E-02	 3.772E+00	 5.308E+00	 5.536E+00	-5.125E-02
   10.9000	 9.526E+00	-5.500E+00	 0.000E+00	 2.348E+02	 8.214E-03	-6.654E-03	 1.496E-03	-1.737E-03	-2.301E-02	 2.280E-02	 8.238E-02	-1.916E-01	 5.446E+00	 6.654E-01	 1.812E+03	 3.172E-02	 8.585E-02	-1.793E-02	-4.315E-03	 5.381E-01	 1.732E+00	 1.335E-01	 7.239E-01	-2.740E-01	 3.800E-01	 5.319E+00	 3.745E+00	 5.398E+00	-1.098E-02
   10.9500	 9.526E+00	-5.500E+00	 0.000E+00	 2.540E+02	 8.964E-03	-1.092E-02	 1.804E-03	-3.106E-03	-2.745E-02	 4.190E-02	 9.250E-02	-2.795E-01	 5.437E+00	 6.803E-01	 1.812E+03	 3.114E-02	 8.655E-02	-5.643E-03	 2.569E-02	 3.857E-01	 8.223E-01	 1.798E-01	 8.712E-01	-3.027E-01	 3.807E-01	 6.172E+00	 1.805E+00	 5.493E+00	 5.036E-02
   11.0000	 9.526E+00	-5.500E+00	 0.000E+00	 2.732E+02	 2.438E-03	-8.896E-03	 2.673E-03	-5.333E-03	-4.053E-02	 7.344E-02	-6.700E-02	-2.315E-01	 5.373E+00	 6.474E-01	 1.812E+03	 3.133E-02	 8.932E-02	 1.141E-02	 8.750E-02	 2.419E-01	 9.036E-01	 1.368E-01	 9.585E-01	-4.032E-01	 9.854E-02	 6.460E+00	-3.954E-01	 5.599E+00	 5.118E-02
   11.0500	 9.526E+00	-5.500E+00	 0.000E+00	 2.925E+02	-1.760E-03	-3.863E-03	 2.425E-03	-6.733E-03	-3.694E-02	 9.323E-02	-1.444E-01	-1.297E-01	 5.339E+00	 6.179E-01	 1.812E+03	 3.216E-02	 9.356E-02	 2.433E-02	 7.615E-02	 5.160E-01	 5.113E-01	 3.277E-02	 8.600E-01	-3.243E-01	-5.384E-02	 5.981E+00	-2.495E+00	 5.754E+00	 6.871E-02
   11.1000	 9.526E+00	-5.500E+00	 0.000E+00	 3.117E+02	-3.847E-04	-2.177E-03	 1.414E-03	-7.985E-03	-2.204E-02	 1.104E-01	-9.126E-02	-1.136E-01	 5.227E+00	 5.474E-01	 1.812E+03	 3.383E-02	 9.831E-02	 3.338E-02	 8.465E-02	-1.837E-01	-1.929E+00	-2.009E-02	 6.402E-01	-1.813E-01	 1.981E-02	 4.887E+00	-4.432E+00	 6.082E+00	 3.310E-02
   11.1500	 9.526E+00	-5.500E+00	 0.000E+00	 3.310E+02	 4.391E-04	-4.218E-03	 2.382E-04	-8.094E-03	-5.139E-03	 1.117E-01	-6.066E-02	-1.614E-01	 5.079E+00	 5.959E-01	 1.812E+03	 3.571E-02	 1.016E-01	 3.860E-02	 6.184E-02	-5.832E-01	-8.970E-01	-6.105E-02	 3.155E-01	-2.293E-02	 6.701E-02	 3.221E+00	-5.720E+00	 6.234E+00	 1.030E-02
   11.2000	 9.526E+00	-5.500E+00	 0.000E+00	 3.502E+02	-3.485E-03	-5.985E-03	-1.560E-03	-7.646E-03	 2.014E-02	 1.051E-01	-1.368E-01	-2.099E-01	 5.049E+00	 6.130E-01	 1.812E+03	 3.691E-02	 1.032E-01	 2.048E-02	 2.283E-02	 2.516E-01	 4.867E-01	-1.877E-01	-1.376E-01	 2.718E-01	-7.163E-02	 1.082E+00	-6.434E+00	 6.372E+00	-3.800E-02
   11.2500	 9.526E+00	-5.500E+00	 0.000E+00	 9.452E+00	-8.173E-03	-4.107E-03	-2.807E-03	-6.936E-03	 3.767E-02	 9.495E-02	-2.275E-01	-1.784E-01	 5.004E+00	 6.173E-01	 1.812E+03	 3.776E-02	 1.037E-01	 7.249E-03	-2.026E-02	-3.338E-01	-1.166E+00	-3.201E-01	-5.592E-01	 4.649E-01	-2.402E-01	-1.060E+00	-6.403E+00	 6.541E+00	-6.212E-02
   11.3000	 9.526E+00	-5.500E+00	 0.000E+00	 2.869E+01	-8.254E-03	-1.212E-03	-5.006E-03	-5.448E-03	 6.885E-02	 7.405E-02	-2.187E-01	-1.212E-01	 5.104E+00	 6.397E-01	 1.812E+03	 3.782E-02	 1.020E-01	-5.933E-03	-3.754E-02	-3.872E-01	-2.906E-02	-3.972E-01	-1.038E+00	 7.935E-01	-2.174E-01	-3.171E+00	-5.643E+00	 6.383E+00	-1.132E-01
   11.3500	 9.526E+00	-5.500E+00	 0.000E+00	 4.794E+01	-4.916E-03	-1.322E-03	-6.496E-03	-3.777E-03	 8.981E-02	 5.060E-02	-1.536E-01	-1.224E-01	 5.135E+00	 6.337E-01	 1.812E+03	 3.703E-02	 9.942E-02	-2.341E-02	-8.011E-02	-9.606E-02	-9.644E-01	-3.433E-01	-1.385E+00	 9.599E-01	-8.276E-02	-4.865E+00	-4.326E+00	 6.174E+00	-9.502E-02
   11.4000	 9.526E+00	-5.500E+00	 0.000E+00	 6.718E+01	-3.123E-03	-5.192E-03	-7.699E-03	-1.226E-03	 1.066E-01	 1.443E-02	-1.249E-01	-2.091E-01	 5.230E+00	 6.471E-01	 1.812E+03	 3.594E-02	 9.571E-02	-2.426E-02	-6.398E-02	-4.910E-01	-8.656E-01	-3.172E-01	-1.653E+00	 1.108E+00	-2.289E-02	-6.088E+00	-2.430E+00	 5.891E+00	-1.366E-01
   11.4500	 9.526E+00	-5.500E+00	 0.000E+00	 8.642E+01	-4.797E-03	-3.659E-03	-8.170E-03	-2.747E-04	 1.129E-01	 1.733E-03	-1.683E-01	-1.533E-01	 5.367E+00	 6.189E-01	 1.812E+03	 3.457E-02	 9.159E-02	-2.189E-02	-7.395E-02	 7.798E-02	 1.046E+00	-3.709E-01	-1.770E+00	 1.175E+00	-9.787E-02	-6.570E+00	-4.186E-01	 5.557E+00	-6.804E-02
   11.5000	 9.526E+00	-5.500E+00	 0.000E+00	 1.057E+02	-6.793E-03	 4.771E-03	-7.654E-03	 9.131E-04	 1.053E-01	-1.525E-02	-2.214E-01	-9.793E-04	 5.435E+00	 5.930E-01	 1.812E+03	 3.305E-02	 8.817E-02	-3.487E-02	-5.868E-02	 4.483E-01	 1.500E+00	-3.943E-01	-1.699E+00	 1.105E+00	-1.793E-01	-6.233E+00	 1.772E+00	 5.512E+00	-3.961E-02
   11.5500	 9.526E+00	-5.500E+00	 0.000E+00	 1.249E+02	-5.476E-03	 9.754E-03	-7.135E-03	 1.708E-03	 9.779E-02	-2.679E-02	-2.032E-01	 8.135E-02	 5.431E+00	 6.375E-01	 1.812E+03	 3.191E-02	 8.710E-02	-1.660E-02	-2.028E-03	 8.797E-02	 2.046E-01	-3.275E-01	-1.534E+00	 1.022E+00	-1.348E-01	-5.331E+00	 3.690E+00	 5.583E+00	 7.368E-03
   11.6000	 9.526E+00	-5.500E+00	 0.000E+00	 1.441E+02	-2.155E-03	 6.142E-03	-5.801E-03	 2.225E-03	 7.906E-02	-3.365E-02	-1.378E-01	 2.706E-02	 5.356E+00	 6.332E-01	 1.812E+03	 3.140E-02	 8.777E-02	-1.794E-03	 3.836E-02	 2.902E-01	 1.313E+00	-2.139E-01	-1.195E+00	 8.018E-01	-1.975E-02	-3.754E+00	 5.218E+00	 5.531E+00	 3.542E-02
   11.6500	 9.526E+00	-5.500E+00	 0.000E+00	 1.634E+02	-1.112E-03	-3.056E-04	-4.225E-03	 2.727E-03	 5.696E-02	-4.079E-02	-1.158E-01	-1.008E-01	 5.320E+00	 6.709E-01	 1.812E+03	 3.162E-02	 9.096E-02	 8.696E-03	 6.845E-02	 1.835E-01	-7.531E-01	-2.035E-01	-7.851E-01	 5.804E-01	 9.683E-03	-1.860E+00	 6.243E+00	 5.676E+00	 7.225E-02
   11.7000	 9.526E+00	-5.500E+00	 0.000E+00	 1.826E+02	-3.558E-03	-1.831E-03	-1.890E-03	 1.890E-03	 2.487E-02	-2.925E-02	-1.349E-01	-1.396E-01	 5.090E+00	 6.775E-01	 1.812E+03	 3.258E-02	 9.449E-02	 3.156E-02	 9.508E-02	 1.833E-01	 8.683E-01	-2.919E-01	-2.685E-01	 2.870E-01	-7.284E-02	 3.752E-01	 6.491E+00	 5.723E+00	 2.181E-02
   11.7500	 9.526E+00	-5.500E+00	 0.000E+00	 2.019E+02	-4.763E-03	 5.306E-04	-3.996E-04	 9.378E-04	 3.204E-03	-1.525E-02	-1.858E-01	-6.987E-02	 5.284E+00	 6.439E-01	 1.812E+03	 3.410E-02	 9.828E-02	 3.558E-02	 5.699E-02	 5.324E-01	 5.520E-01	-2.213E-01	 1.169E-01	 9.422E-02	-1.144E-01	 2.452E+00	 6.141E+00	 5.926E+00	 5.085E-02
   11.8000	 9.526E+00	-5.500E+00	 0.000E+00	 2.211E+02	 2.145E-03	-1.197E-03	 5.910E-04	-7.895E-04	-1.144E-02	 9.361E-03	-7.987E-02	-9.033E-02	 5.062E+00	 5.966E-01	 1.812E+03	 3.578E-02	 1.010E-01	 1.957E-02	 2.918E-02	-4.052E-01	-1.009E+00	 1.240E-01	 4.782E-01	-9.792E-02	 1.324E-01	 4.282E+00	 4.905E+00	 6.309E+00	-4.871E-03
   11.8500	 9.526E+00	-5.500E+00	 0.000E+00	 2.404E+02	 9.388E-03	-6.356E-03	 1.698E-03	-2.143E-03	-2.649E-02	 2.854E-02	 8.054E-02	-1.842E-01	 5.017E+00	 5.520E-01	 1.812E+03	 3.684E-02	 1.025E-01	 2.228E-02	 2.833E-02	-3.511E-01	-1.056E+00	 2.884E-01	 7.946E-01	-3.109E-01	 3.981E-01	 5.686E+00	 3.231E+00	 6.460E+00	-4.685E-02
   11.9000	 9.526E+00	-5.500E+00	 0.000E+00	 2.596E+02	 8.657E-03	-9.097E-03	 1.976E-03	-3.901E-03	-2.977E-02	 5.316E-02	 9.034E-02	-2.410E-01	 5.084E+00	 6.035E-01	 1.812E+03	 3.749E-02	 1.025E-01	 6.445E-03	-2.131E-02	-2.157E-01	-2.717E-01	 1.903E-01	 9.101E-01	-3.270E-01	 3.639E-01	 6.347E+00	 1.141E+00	 6.410E+00	-7.134E-02
   11.9500	 9.526E+00	-5.500E+00	 0.000E+00	 2.788E+02	 2.287E-03	-6.719E-03	 2.684E-03	-5.923E-03	-4.045E-02	 8.163E-02	-6.068E-02	-1.936E-01	 5.102E+00	 5.627E-01	 1.812E+03	 3.746E-02	 1.013E-01	-9.373E-03	-2.999E-02	-4.163E-01	-1.182E+00	 1.272E-01	 9.537E-01	-4.015E-01	 9.681E-02	 6.439E+00	-1.065E+00	 6.316E+00	-9.994E-02
   12.0000	 9.526E+00	-5.500E+00	 0.000E+00	 2.981E+02	-6.699E-04	-3.113E-03	 2.052E-03	-7.130E-03	-3.186E-02	 9.877E-02	-1.295E-01	-1.168E-01	 5.172E+00	 6.552E-01	 1.812E+03	 3.668E-02	 9.833E-02	-1.501E-02	-6.421E-02	 2.254E-01	 1.106E+00	 9.314E-02	 7.913E-01	-2.768E-01	-1.418E-02	 5.684E+00	-3.103E+00	 5.989E+00	-1.056E-01
   12.0500	 9.526E+00	-5.500E+00	 0.000E+00	 3.173E+02	 7.432E-04	-3.517E-03	 1.091E-03	-8.191E-03	-1.742E-02	 1.132E-01	-6.641E-02	-1.436E-01	 5.253E+00	 6.202E-01	 1.812E+03	 3.570E-02	 9.518E-02	-2.591E-02	-8.713E-02	 1.731E-01	-3.398E-01	-2.698E-03	 5.547E-01	-1.486E-01	 5.935E-02	 4.437E+00	-4.909E+00	 5.827E+00	-9.100E-02
   12.1000	 9.526E+00	-5.500E+00	 0.000E+00	 3.366E+02	-9.254E-04	-6.078E-03	-3.186E-04	-7.857E-03	 2.857E-03	 1.083E-01	-8.063E-02	-2.027E-01	 5.308E+00	 6.655E-01	 1.812E+03	 3.455E-02	 9.149E-02	-3.132E-02	-7.124E-02	-6.553E-01	-6.388E-01	-1.443E-01	 1.787E-01	 7.370E-02	 2.144E-02	 2.592E+00	-5.971E+00	 5.749E+00	-7.281E-02
   12.1500	 9.526E+00	-5.500E+00	 0.000E+00	 3.558E+02	-6.617E-03	-6.630E-03	-1.823E-03	-7.460E-03	 2.400E-02	 1.024E-01	-1.908E-01	-2.231E-01	 5.411E+00	 6.546E-01	 1.812E+03	 3.298E-02	 8.869E-02	-2.103E-02	-1.952E-02	 2.954E-01	 1.040E+00	-3.247E-01	-2.539E-01	 3.288E-01	-1.830E-01	 4.603E-01	-6.497E+00	 5.593E+00	-3.762E-02
   12.2000	 9.526E+00	-5.500E+00	 0.000E+00	 1.505E+01	-1.061E-02	-3.642E-03	-3.247E-03	-6.527E-03	 4.390E-02	 8.928E-02	-2.733E-01	-1.659E-01	 5.409E+00	 6.166E-01	 1.812E+03	 3.203E-02	 8.802E-02	-1.513E-02	-3.908E-03	 3.781E-01	 1.054E+00	-4.290E-01	-6.859E-01	 5.521E-01	-3.212E-01	-1.647E+00	-6.213E+00	 5.564E+00	 2.350E-02
   12.2500	 9.526E+00	-5.500E+00	 0.000E+00	 3.429E+01	-8.705E-03	-1.066E-03	-5.437E-03	-4.980E-03	 7.489E-02	 6.757E-02	-2.285E-01	-1.153E-01	 5.384E+00	 6.064E-01	 1.812E+03	 3.168E-02	 8.936E-02	-1.266E-03	 5.373E-02	 1.352E-01	 5.594E-01	-4.347E-01	-1.144E+00	 8.555E-01	-2.270E-01	-3.678E+00	-5.334E+00	 5.606E+00	 3.338E-02
   12.3000	 9.526E+00	-5.500E+00	 0.000E+00	 5.353E+01	-4.045E-03	-1.901E-03	-6.775E-03	-3.203E-03	 9.385E-02	 4.265E-02	-1.323E-01	-1.285E-01	 5.376E+00	 5.689E-01	 1.812E+03	 3.188E-02	 9.193E-02	 1.368E-02	 5.279E-02	 6.018E-01	 1.012E+00	-3.603E-01	-1.453E+00	 9.889E-01	-4.396E-02	-5.208E+00	-3.827E+00	 5.673E+00	 6.048E-02
   12.3500	 9.526E+00	-5.500E+00	 0.000E+00	 7.278E+01	-2.660E-03	-6.300E-03	-8.015E-03	-7.059E-04	 1.108E-01	 6.395E-03	-1.241E-01	-2.585E-01	 5.204E+00	 6.363E-01	 1.812E+03	 3.301E-02	 9.563E-02	 2.301E-02	 6.334E-02	-3.695E-02	-1.581E+00	-2.890E-01	-1.712E+00	 1.147E+00	-1.195E-02	-6.322E+00	-1.900E+00	 5.910E+00	 3.778E-02
   12.4000	 9.526E+00	-5.500E+00	 0.000E+00	 9.202E+01	-4.519E-03	-2.022E-03	-8.044E-03	-4.355E-05	 1.110E-01	-2.074E-03	-1.685E-01	-1.431E-01	 5.150E+00	 6.317E-01	 1.812E+03	 3.456E-02	 9.843E-02	 3.342E-02	 5.879E-02	-5.803E-01	-8.364E-01	-3.323E-01	-1.760E+00	 1.146E+00	-9.318E-02	-6.551E+00	 1.844E-01	 6.062E+00	 2.639E-02
   12.4500	 9.526E+00	-5.500E+00	 0.000E+00	 1.113E+02	-5.936E-03	 7.319E-03	-7.627E-03	 1.329E-03	 1.048E-01	-2.059E-02	-2.085E-01	 6.771E-02	 5.125E+00	 5.828E-01	 1.812E+03	 3.565E-02	 1.002E-01	 2.253E-02	 3.763E-02	 3.689E-01	 8.242E-01	-3.364E-01	-1.671E+00	 1.097E+00	-1.514E-01	-6.072E+00	 2.385E+00	 6.199E+00	-1.466E-02
   12.5000	 9.526E+00	-5.500E+00	 0.000E+00	 1.305E+02	-3.953E-03	 1.012E-02	-6.861E-03	 1.754E-03	 9.392E-02	-2.711E-02	-1.743E-01	 1.006E-01	 5.095E+00	 6.070E-01	 1.812E+03	 3.672E-02	 1.017E-01	 1.464E-02	 4.518E-03	-2.126E-01	-9.150E-01	-2.601E-01	-1.451E+00	 9.711E-01	-8.036E-02	-4.935E+00	 4.199E+00	 6.415E+00	-3.520E-02
   12.5500	 9.526E+00	-5.500E+00	 0.000E+00	 1.497E+02	-1.229E-03	 4.885E-03	-5.358E-03	 2.491E-03	 7.280E-02	-3.794E-02	-1.219E-01	-1.839E-02	 5.084E+00	 5.926E-01	 1.812E+03	 3.724E-02	 1.015E-01	 4.354E-03	-6.246E-03	-3.196E-01	 1.104E-01	-1.623E-01	-1.077E+00	 7.344E-01	 1.311E-02	-3.202E+00	 5.627E+00	 6.341E+00	-9.274E-02
   12.6000	 9.526E+00	-5.500E+00	 0.000E+00	 1.690E+02	-1.397E-03	-5.287E-05	-3.674E-03	 2.491E-03	 4.913E-02	-3.766E-02	-1.247E-01	-1.033E-01	 5.123E+00	 5.961E-01	 1.812E+03	 3.704E-02	 1.004E-01	-1.127E-02	-5.426E-02	-1.114E-01	-1.077E+00	-1.803E-01	-6.422E-01	 5.112E-01	 2.634E-03	-1.195E+00	 6.401E+00	 6.219E+00	-8.577E-02
   12.6500	 9.526E+00	-5.500E+00	 0.000E+00	 1.882E+02	-5.039E-03	-2.977E-05	-1.126E-03	 1.495E-03	 1.287E-02	-2.337E-02	-2.120E-01	-9.185E-02	 5.219E+00	 5.788E-01	 1.812E+03	 3.652E-02	 9.793E-02	-1.386E-02	-4.416E-02	-5.300E-01	-1.477E+00	-1.543E-01	-1.361E-01	 1.580E-01	-1.674E-01	 1.052E+00	 6.483E+00	 6.055E+00	-1.290E-01
   12.7000	 9.526E+00	-5.500E+00	 0.000E+00	 2.075E+02	-2.846E-03	 7.402E-04	-2.733E-04	 5.055E-04	 1.742E-03	-9.041E-03	-1.362E-01	-6.051E-02	 5.358E+00	 6.205E-01	 1.812E+03	 3.560E-02	 9.442E-02	-1.494E-02	-6.108E-02	-5.506E-02	 1.064E+00	-1.943E-01	 2.097E-01	 7.328E-02	-2.997E-02	 3.024E+00	 5.836E+00	 5.731E+00	-8.204E-02
   12.7500	 9.526E+00	-5.500E+00	 0.000E+00	 2.267E+02	 5.263E-03	-3.516E-03	 1.018E-03	-1.267E-03	-1.663E-02	 1.604E-02	 1.233E-02	-1.367E-01	 5.359E+00	 6.378E-01	 1.812E+03	 3.424E-02	 9.116E-02	-3.417E-02	-6.686E-02	 4.269E-01	 1.360E+00	 9.002E-02	 5.899E-01	-1.877E-01	 2.570E-01	 4.750E+00	 4.425E+00	 5.681E+00	-6.269E-02
   12.8000	 9.526E+00	-5.500E+00	 0.000E+00	 2.460E+02	 9.561E-03	-9.252E-03	 1.718E-03	-2.413E-03	-2.698E-02	 3.231E-02	 7.590E-02	-2.419E-01	 5.275E+00	 6.153E-01	 1.812E+03	 3.305E-02	 8.954E-02	-2.098E-02	-2.049E-02	-6.796E-02	-2.961E-01	 3.049E-01	 8.269E-01	-3.077E-01	 3.944E-01	 5.913E+00	 2.662E+00	 5.734E+00	-1.579E-02
   12.8500	 9.526E+00	-5.500E+00	 0.000E+00	 2.652E+02	 5.952E-03	-1.021E-02	 2.278E-03	-4.478E-03	-3.448E-02	 6.146E-02	 2.030E-02	-2.550E-01	 5.371E+00	 6.793E-01	 1.812E+03	 3.217E-02	 8.896E-02	-1.153E-02	 1.309E-02	 2.267E-01	 1.405E+00	 1.590E-01	 9.337E-01	-3.620E-01	 2.469E-01	 6.407E+00	 5.143E-01	 5.600E+00	 9.810E-03
   12.9000	 9.526E+00	-5.500E+00	 0.000E+00	 2.844E+02	-7.499E-05	-6.329E-03	 2.665E-03	-6.193E-03	-3.987E-02	 8.551E-02	-9.448E-02	-1.829E-01	 5.416E+00	 5.957E-01	 1.812E+03	 3.184E-02	 9.078E-02	-2.533E-03	 3.694E-02	 2.007E-01	-7.401E-01	 1.123E-02	 9.253E-01	-3.764E-01	 1.312E-02	 6.300E+00	-1.627E+00	 5.666E+00	 5.904E-02
   12.9500	 9.526E+00	-5.500E+00	 0.000E+00	 3.037E+02	-1.557E-03	-2.730E-03	 1.826E-03	-7.459E-03	-2.832E-02	 1.033E-01	-1.325E-01	-1.117E-01	 5.391E+00	 6.250E-01	 1.812E+03	 3.226E-02	 9.298E-02	 2.057E-02	 7.394E-02	 1.683E-01	 5.809E-01	 8.440E-03	 7.309E-01	-2.358E-01	-4.396E-02	 5.376E+00	-3.659E+00	 5.679E+00	 2.798E-02
   13.0000	 9.526E+00	-5.500E+00	 0.000E+00	 3.229E+02	 1.533E-04	-3.471E-03	 8.955E-04	-8.250E-03	-1.469E-02	 1.141E-01	-7.832E-02	-1.415E-01	 5.241E+00	 6.021E-01	 1.812E+03	 3.331E-02	 9.579E-02	 2.853E-02	 4.605E-02	 5.229E-01	 8.197E-01	-2.610E-02	 4.776E-01	-1.191E-01	 4.567E-02	 4.001E+00	-5.256E+00	 5.769E+00	 5.848E-02
   13.0500	 9.526E+00	-5.500E+00	 0.000E+00	 3.422E+02	-1.952E-03	-5.771E-03	-8.558E-04	-7.762E-03	 1.032E-02	 1.068E-01	-1.041E-01	-2.018E-01	 5.181E+00	 6.123E-01	 1.812E+03	 3.462E-02	 9.808E-02	 1.600E-02	 2.724E-02	-8.152E-02	-2.338E-01	-1.567E-01	 5.064E-02	 1.620E-01	-1.516E-02	 1.994E+00	-6.188E+00	 6.112E+00	 1.618E-02
   13.1000	 9.526E+00	-5.500E+00	 0.000E+00	 1.406E+00	-6.887E-03	-5.317E-03	-2.188E-03	-7.336E-03	 2.919E-02	 1.006E-01	-1.939E-01	-2.016E-01	 5.118E+00	 6.097E-01	 1.812E+03	 3.572E-02	 1.001E-01	 2.352E-02	 3.852E-02	-3.516E-01	-1.212E+00	-3.171E-01	-3.714E-01	 3.743E-01	-1.926E-01	-1.534E-01	-6.530E+00	 6.336E+00	-1.962E-02
   13.1500	 9.526E+00	-5.500E+00	 0.000E+00	 2.065E+01	-9.036E-03	-2.238E-03	-4.023E-03	-6.111E-03	 5.491E-02	 8.340E-02	-2.381E-01	-1.401E-01	 5.100E+00	 6.137E-01	 1.812E+03	 3.658E-02	 1.008E-01	 1.479E-02	 6.655E-03	-1.012E-01	 5.178E-02	-3.904E-01	-8.362E-01	 6.558E-01	-2.557E-01	-2.294E+00	-6.022E+00	 6.309E+00	-4.866E-02
   13.2000	 9.526E+00	-5.500E+00	 0.000E+00	 3.989E+01	-6.439E-03	-7.992E-04	-5.992E-03	-4.527E-03	 8.259E-02	 6.119E-02	-1.886E-01	-1.101E-01	 5.050E+00	 6.345E-01	 1.812E+03	 3.700E-02	 1.010E-01	-2.364E-04	-8.851E-03	-3.417E-01	-1.214E+00	-3.463E-01	-1.259E+00	 9.098E-01	-1.450E-01	-4.227E+00	-4.974E+00	 6.291E+00	-7.818E-02
   13.2500	 9.526E+00	-5.500E+00	 0.000E+00	 5.913E+01	-2.959E-03	-2.602E-03	-7.202E-03	-2.400E-03	 9.977E-02	 3.227E-02	-1.147E-01	-1.075E-01	 5.165E+00	 5.920E-01	 1.812E+03	 3.680E-02	 9.937E-02	-2.986E-03	-3.470E-02	 1.270E-01	 9.589E-01	-3.163E-01	-1.542E+00	 1.039E+00	-9.027E-03	-5.610E+00	-3.268E+00	 6.003E+00	-1.061E-01
   13.3000	 9.526E+00	-5.500E+00	 0.000E+00	 7.837E+01	-3.429E-03	-5.614E-03	-8.225E-03	-4.503E-04	 1.137E-01	 3.326E-03	-1.417E-01	-2.249E-01	 5.234E+00	 6.356E-01	 1.812E+03	 3.630E-02	 9.719E-02	-1.593E-02	-7.060E-02	 2.031E-01	-2.830E-01	-3.144E-01	-1.757E+00	 1.182E+00	-4.540E-02	-6.496E+00	-1.276E+00	 5.935E+00	-9.156E-02
   13.3500	 9.526E+00	-5.500E+00	 0.000E+00	 9.762E+01	-5.929E-03	 5.934E-04	-7.848E-03	 2.975E-04	 1.081E-01	-7.421E-03	-2.016E-01	-1.135E-01	 5.291E+00	 6.390E-01	 1.812E+03	 3.550E-02	 9.405E-02	-2.766E-02	-6.739E-02	-6.785E-01	-7.475E-01	-3.704E-01	-1.740E+00	 1.124E+00	-1.457E-01	-6.449E+00	 8.660E-01	 5.907E+00	-8.664E-02
   13.4000	 9.526E+00	-5.500E+00	 0.000E+00	 1.169E+02	-6.391E-03	 9.047E-03	-7.447E-03	 1.577E-03	 1.022E-01	-2.435E-02	-2.197E-01	 9.040E-02	 5.329E+00	 6.076E-01	 1.812E+03	 3.406E-02	 9.122E-02	-2.198E-02	-3.011E-02	 1.753E-01	 6.521E-01	-3.530E-01	-1.624E+00	 1.076E+00	-1.680E-01	-5.805E+00	 2.961E+00	 5.758E+00	-5.683E-02
   13.4500	 9.526E+00	-5.500E+00	 0.000E+00	 1.361E+02	-3.453E-03	 9.138E-03	-6.441E-03	 1.833E-03	 8.809E-02	-2.774E-02	-1.622E-01	 1.009E-01	 5.331E+00	 6.139E-01	 1.812E+03	 3.298E-02	 8.990E-02	-1.927E-02	-2.057E-02	 2.218E-01	 6.097E-01	-2.657E-01	-1.350E+00	 9.056E-01	-6.237E-02	-4.466E+00	 4.621E+00	 5.685E+00	 1.199E-04
   13.5000	 9.526E+00	-5.500E+00	 0.000E+00	 1.553E+02	-1.091E-03	 2.151E-03	-4.900E-03	 2.699E-03	 6.644E-02	-4.084E-02	-1.154E-01	-7.051E-02	 5.345E+00	 6.523E-01	 1.812E+03	 3.227E-02	 9.014E-02	-9.508E-03	 3.244E-02	 1.436E-01	 5.858E-01	-2.015E-01	-9.608E-01	 6.705E-01	 1.699E-02	-2.669E+00	 5.910E+00	 5.645E+00	 1.463E-02
   13.5500	 9.526E+00	-5.500E+00	 0.000E+00	 1.746E+02	-2.025E-03	-1.886E-03	-3.066E-03	 2.319E-03	 4.088E-02	-3.554E-02	-1.253E-01	-1.502E-01	 5.143E+00	 6.770E-01	 1.812E+03	 3.200E-02	 9.148E-02	 3.696E-03	 2.765E-02	 6.041E-01	 1.290E+00	-1.352E-01	-4.954E-01	 4.640E-01	 2.933E-02	-5.784E-01	 6.432E+00	 5.633E+00	 4.146E-02
   13.6000	 9.526E+00	-5.500E+00	 0.000E+00	 1.938E+02	-5.936E-03	-3.696E-04	-6.837E-04	 1.321E-03	 6.093E-03	-2.068E-02	-2.511E-01	-8.898E-02	 5.223E+00	 6.376E-01	 1.812E+03	 3.266E-02	 9.405E-02	 1.405E-02	 4.034E-02	 8.229E-02	-1.281E+00	-1.228E-01	-1.996E-02	 1.154E-01	-1.920E-01	 1.626E+00	 6.399E+00	 5.813E+00	 4.060E-02
   13.6500	 9.526E+00	-5.500E+00	 0.000E+00	 2.131E+02	-1.349E-03	-2.284E-04	 2.482E-06	 6.183E-05	-2.893E-03	-2.571E-03	-1.367E-01	-7.017E-02	 5.251E+00	 6.310E-01	 1.812E+03	 3.383E-02	 9.619E-02	 2.538E-02	 4.984E-02	-5.776E-01	-8.823E-01	-2.825E-02	 3.062E-01	 1.406E-02	-4.118E-03	 3.528E+00	 5.506E+00	 5.961E+00	 3.503E-02
   13.7000	 9.526E+00	-5.500E+00	 0.000E+00	 2.323E+02	 7.388E-03	-4.670E-03	 1.406E-03	-1.653E-03	-2.167E-02	 2.152E-02	 6.955E-02	-1.571E-01	 5.242E+00	 6.246E-01	 1.812E+03	 3.469E-02	 9.790E-02	 2.210E-02	 4.430E-02	 4.342E-01	 9.407E-01	 1.144E-01	 6.913E-01	-2.572E-01	 3.471E-01	 5.169E+00	 3.977E+00	 6.067E+00	 2.496E-03
   13.7500	 9.526E+00	-5.500E+00	 0.000E+00	 2.516E+02	 9.532E-03	-9.027E-03	 1.783E-03	-2.957E-03	-2.741E-02	 3.975E-02	 9.397E-02	-2.448E-01	 5.124E+00	 5.952E-01	 1.812E+03	 3.579E-02	 9.979E-02	 1.680E-02	 1.606E-02	-1.408E-01	-6.569E-01	 2.527E-01	 8.640E-01	-3.070E-01	 3.968E-01	 6.130E+00	 2.070E+00	 6.290E+00	-1.197E-02
   13.8000	 9.526E+00	-5.500E+00	 0.000E+00	 2.708E+02	 4.341E-03	-8.130E-03	 2.541E-03	-5.205E-03	-3.872E-02	 7.163E-02	-3.195E-02	-2.167E-01	 5.077E+00	 6.018E-01	 1.812E+03	 3.652E-02	 1.004E-01	 1.078E-02	 1.656E-02	-2.489E-01	 1.080E-01	 2.142E-01	 9.568E-01	-3.970E-01	 1.699E-01	 6.476E+00	-1.534E-01	 6.275E+00	-6.948E-02
   13.8500	 9.526E+00	-5.500E+00	 0.000E+00	 2.900E+02	-4.080E-05	-4.153E-03	 2.443E-03	-6.633E-03	-3.706E-02	 9.177E-02	-1.059E-01	-1.375E-01	 5.082E+00	 5.814E-01	 1.812E+03	 3.668E-02	 1.003E-01	-2.212E-03	-3.313E-02	 5.247E-02	-5.919E-01	 8.134E-02	 8.806E-01	-3.420E-01	 8.963E-03	 6.098E+00	-2.307E+00	 6.114E+00	-8.151E-02
   13.9000	 9.526E+00	-5.500E+00	 0.000E+00	 3.093E+02	 1.989E-04	-2.623E-03	 1.445E-03	-7.856E-03	-2.259E-02	 1.087E-01	-8.381E-02	-1.189E-01	 5.175E+00	 5.879E-01	 1.812E+03	 3.665E-02	 9.900E-02	-6.713E-03	-3.020E-02	-5.868E-01	-1.716E+00	 1.582E-02	 6.608E-01	-1.902E-01	 3.508E-02	 5.020E+00	-4.257E+00	 6.118E+00	-1.236E-01
   13.9500	 9.526E+00	-5.500E+00	 0.000E+00	 3.285E+02	 5.446E-04	-4.654E-03	 4.292E-04	-8.143E-03	-7.921E-03	 1.125E-01	-6.246E-02	-1.670E-01	 5.186E+00	 6.533E-01	 1.812E+03	 3.614E-02	 9.629E-02	-8.433E-03	-5.026E-02	-3.003E-01	 1.751E-01	-5.204E-02	 3.603E-01	-5.438E-02	 6.550E-02	 3.445E+00	-5.598E+00	 5.880E+00	-8.215E-02
   14.0000	 9.526E+00	-5.500E+00	 0.000E+00	 3.478E+02	-3.765E-03	-6.665E-03	-1.351E-03	-7.640E-03	 1.719E-02	 1.050E-01	-1.426E-01	-2.205E-01	 5.298E+00	 6.666E-01	 1.812E+03	 3.499E-02	 9.318E-02	-2.820E-02	-5.802E-02	 4.419E-01	 1.553E+00	-2.105E-01	-8.747E-02	 2.456E-01	-8.272E-02	 1.337E+00	-6.357E+00	 5.788E+00	-7.617E-02
   14.0500	 9.526E+00	-5.500E+00	 0.000E+00	 7.004E+00	-9.124E-03	-5.062E-03	-2.524E-03	-7.038E-03	 3.380E-02	 9.641E-02	-2.417E-01	-1.957E-01	 5.324E+00	 6.414E-01	 1.812E+03	 3.390E-02	 9.145E-02	-2.276E-02	-3.402E-02	-1.195E-01	-2.577E-01	-3.816E-01	-4.960E-01	 4.348E-01	-2.746E-01	-7.767E-01	-6.437E+00	 5.835E+00	-3.510E-02
   14.1000	 9.526E+00	-5.500E+00	 0.000E+00	 2.625E+01	-9.772E-03	-1.816E-03	-4.621E-03	-5.633E-03	 6.350E-02	 7.668E-02	-2.457E-01	-1.319E-01	 5.401E+00	 6.186E-01	 1.812E+03	 3.293E-02	 9.033E-02	-1.455E-02	 8.223E-04	 1.732E-01	 1.098E+00	-4.636E-01	-9.698E-01	 7.509E-01	-2.718E-01	-2.877E+00	-5.750E+00	 5.689E+00	-1.103E-02
   14.1500	 9.526E+00	-5.500E+00	 0.000E+00	 4.549E+01	-6.096E-03	-1.242E-03	-6.271E-03	-4.027E-03	 8.664E-02	 5.415E-02	-1.769E-01	-1.189E-01	 5.302E+00	 6.039E-01	 1.812E+03	 3.231E-02	 9.115E-02	-9.907E-03	 1.391E-02	 2.521E-01	-4.844E-01	-3.807E-01	-1.339E+00	 9.402E-01	-1.249E-01	-4.646E+00	-4.551E+00	 5.676E+00	 3.910E-02
   14.2000	 9.526E+00	-5.500E+00	 0.000E+00	 6.473E+01	-3.006E-03	-4.319E-03	-7.508E-03	-1.585E-03	 1.040E-01	 2.009E-02	-1.194E-01	-1.685E-01	 5.312E+00	 5.953E-01	 1.812E+03	 3.238E-02	 9.247E-02	 1.192E-02	 5.395E-02	 3.698E-02	 2.766E-01	-3.232E-01	-1.613E+00	 1.079E+00	-1.815E-02	-5.924E+00	-2.717E+00	 5.644E+00	 1.084E-02
   14.2500	 9.526E+00	-5.500E+00	 0.000E+00	 8.397E+01	-3.806E-03	-4.287E-03	-8.233E-03	-3.506E-04	 1.138E-01	 2.741E-03	-1.481E-01	-1.677E-01	 5.285E+00	 6.016E-01	 1.812E+03	 3.302E-02	 9.433E-02	 2.217E-02	 3.484E-02	 4.933E-01	 9.542E-01	-3.388E-01	-1.768E+00	 1.180E+00	-5.954E-02	-6.558E+00	-7.235E-01	 5.689E+00	 5.571E-02