
Predictions were generated on 10-Jul-2015 at 10:41:43 using FAST (v8.12.00a-bjj, 15-Jun-2015), compiled as a 32-bit application using single precision
 linked with  NWTC Subroutine Library (v2.06.02a-bjj, 8-Jul-2015); ElastoDyn (v1.03.00a-bjj, 9-Jul-2015); InflowWind (v3.00.01a-adp, 27-Apr-2015); AeroDyn14 (v14.04.00a-bjj, 14-Apr-2015); ServoDyn (v1.02.02a-bjj, 11-May-2015)

Description from the FAST input file: FAST Certification Test #02: AWT-27CR2 with many DOFs with startup and shutdown and steady wind

Time      	Wind1VelX 	Wind1VelY 	Wind1VelZ 	Spn1ALxb1 	Spn1ALyb1 	Spn1ALzb1 	RotSpeed  	LSSGagVxa 	RootFxb1  	RootFyb1  	RootFxb2  	RootFyb2  	RootMIP2  	RootMOoP2 	Spn1MLxb1 	Spn1MLyb1 	RotTorq   	LSSTipMys 	LSSTipMzs 	LSSGagMya 	LSSGagMza 	HSShftTq  	HSSBrTq   	HSShftPwr 	GenTq     	GenPwr    
(s)       	(m/s)     	(m/s)     	(m/s)     	(m/s^2)   	(m/s^2)   	(m/s^2)   	(rpm)     	(rpm)     	(kN)      	(kN)      	(kN)      	(kN)      	(kN·m)    	(kN·m)    	(kN·m)    	(kN·m)    	(kN·m)    	(kN·m)    	(kN·m)    	(kN·m)    	(kN·m)    	(kN·m)    	(kN·m)    	(kW)      	(kN·m)    	(kW)      
    5.0000	 1.200E+01	 0.000E+00	 0.000E+00	 2.791E-02	 6.917E-03	-1.181E-02	 1.786E-01	 1.786E-01	 3.276E+00	-3.183E-01	 2.889E+00	 1.303E-01	-1.024E+00	 1.548E+01	-2.106E-01	 3.922E+00	 3.525E-02	 3.461E+00	-3.303E-01	 7.953E+00	-7.410E-01	 1.567E-03	 0.000E+00	 6.594E-04	 0.000E+00	 0.000E+00
    5.0400	 1.200E+01	 0.000E+00	 0.000E+00	 2.970E-02	 7.800E-03	-6.713E-03	 1.791E-01	 1.791E-01	 3.284E+00	-3.218E-01	 2.899E+00	 1.330E-01	-1.036E+00	 1.554E+01	-2.076E-01	 3.941E+00	 3.757E-02	 3.445E+00	-3.377E-01	 7.937E+00	-7.533E-01	 1.670E-03	 0.000E+00	 7.046E-04	 0.000E+00	 0.000E+00
    5.0800	 1.200E+01	 0.000E+00	 0.000E+00	 2.953E-02	 8.354E-03	-4.548E-03	 1.796E-01	 1.796E-01	 3.292E+00	-3.253E-01	 2.909E+00	 1.359E-01	-1.049E+00	 1.559E+01	-2.046E-01	 3.955E+00	 3.747E-02	 3.429E+00	-3.440E-01	 7.921E+00	-7.644E-01	 1.665E-03	 0.000E+00	 7.046E-04	 0.000E+00	 0.000E+00
    5.1200	 1.200E+01	 0.000E+00	 0.000E+00	 2.840E-02	 8.665E-03	-5.466E-03	 1.800E-01	 1.800E-01	 3.299E+00	-3.286E-01	 2.919E+00	 1.388E-01	-1.063E+00	 1.563E+01	-2.014E-01	 3.961E+00	 3.423E-02	 3.413E+00	-3.487E-01	 7.905E+00	-7.740E-01	 1.521E-03	 0.000E+00	 6.454E-04	 0.000E+00	 0.000E+00
    5.1600	 1.200E+01	 0.000E+00	 0.000E+00	 2.585E-02	 8.716E-03	-9.370E-03	 1.804E-01	 1.804E-01	 3.306E+00	-3.318E-01	 2.928E+00	 1.419E-01	-1.079E+00	 1.566E+01	-1.981E-01	 3.960E+00	 2.836E-02	 3.397E+00	-3.521E-01	 7.889E+00	-7.823E-01	 1.260E-03	 0.000E+00	 5.358E-04	 0.000E+00	 0.000E+00
    5.2000	 1.200E+01	 0.000E+00	 0.000E+00	 2.038E-02	 8.386E-03	-1.592E-02	 1.807E-01	 1.807E-01	 3.314E+00	-3.350E-01	 2.939E+00	 1.451E-01	-1.096E+00	 1.569E+01	-1.947E-01	 3.958E+00	 2.132E-02	 3.382E+00	-3.549E-01	 7.874E+00	-7.901E-01	 9.477E-04	 0.000E+00	 4.036E-04	 0.000E+00	 0.000E+00
    5.2400	 1.200E+01	 0.000E+00	 0.000E+00	 1.014E-02	 7.606E-03	-2.460E-02	 1.809E-01	 1.810E-01	 3.325E+00	-3.384E-01	 2.952E+00	 1.482E-01	-1.113E+00	 1.573E+01	-1.917E-01	 3.960E+00	 1.499E-02	 3.368E+00	-3.580E-01	 7.859E+00	-7.983E-01	 6.661E-04	 0.000E+00	 2.841E-04	 0.000E+00	 0.000E+00
    5.2800	 1.200E+01	 0.000E+00	 0.000E+00	-6.011E-03	 6.306E-03	-3.474E-02	 1.811E-01	 1.811E-01	 3.338E+00	-3.419E-01	 2.967E+00	 1.512E-01	-1.128E+00	 1.579E+01	-1.890E-01	 3.970E+00	 1.088E-02	 3.355E+00	-3.624E-01	 7.846E+00	-8.077E-01	 4.837E-04	 0.000E+00	 2.064E-04	 0.000E+00	 0.000E+00
    5.3200	 1.200E+01	 0.000E+00	 0.000E+00	-2.789E-02	 4.537E-03	-4.563E-02	 1.813E-01	 1.813E-01	 3.355E+00	-3.456E-01	 2.986E+00	 1.540E-01	-1.142E+00	 1.588E+01	-1.869E-01	 3.991E+00	 9.697E-03	 3.343E+00	-3.683E-01	 7.835E+00	-8.187E-01	 4.310E-04	 0.000E+00	 1.841E-04	 0.000E+00	 0.000E+00
    5.3600	 1.200E+01	 0.000E+00	 0.000E+00	-5.374E-02	 2.488E-03	-5.659E-02	 1.814E-01	 1.814E-01	 3.374E+00	-3.495E-01	 3.007E+00	 1.566E-01	-1.155E+00	 1.599E+01	-1.853E-01	 4.021E+00	 1.105E-02	 3.332E+00	-3.756E-01	 7.825E+00	-8.312E-01	 4.911E-04	 0.000E+00	 2.099E-04	 0.000E+00	 0.000E+00
    5.4000	 1.200E+01	 0.000E+00	 0.000E+00	-8.053E-02	 4.325E-04	-6.695E-02	 1.816E-01	 1.816E-01	 3.395E+00	-3.535E-01	 3.029E+00	 1.592E-01	-1.168E+00	 1.611E+01	-1.837E-01	 4.056E+00	 1.368E-02	 3.322E+00	-3.836E-01	 7.816E+00	-8.444E-01	 6.079E-04	 0.000E+00	 2.600E-04	 0.000E+00	 0.000E+00
    5.4400	 1.200E+01	 0.000E+00	 0.000E+00	-1.048E-01	-1.355E-03	-7.616E-02	 1.818E-01	 1.817E-01	 3.414E+00	-3.574E-01	 3.050E+00	 1.618E-01	-1.180E+00	 1.623E+01	-1.821E-01	 4.088E+00	 1.594E-02	 3.313E+00	-3.914E-01	 7.808E+00	-8.575E-01	 7.086E-04	 0.000E+00	 3.034E-04	 0.000E+00	 0.000E+00
    5.4800	 1.200E+01	 0.000E+00	 0.000E+00	-1.233E-01	-2.596E-03	-8.373E-02	 1.820E-01	 1.820E-01	 3.430E+00	-3.613E-01	 3.068E+00	 1.646E-01	-1.193E+00	 1.632E+01	-1.802E-01	 4.114E+00	 1.640E-02	 3.304E+00	-3.983E-01	 7.800E+00	-8.697E-01	 7.287E-04	 0.000E+00	 3.124E-04	 0.000E+00	 0.000E+00
    5.5200	 1.200E+01	 0.000E+00	 0.000E+00	-1.344E-01	-3.152E-03	-8.923E-02	 1.821E-01	 1.821E-01	 3.442E+00	-3.649E-01	 3.082E+00	 1.675E-01	-1.208E+00	 1.639E+01	-1.776E-01	 4.129E+00	 1.428E-02	 3.296E+00	-4.037E-01	 7.792E+00	-8.803E-01	 6.345E-04	 0.000E+00	 2.723E-04	 0.000E+00	 0.000E+00
    5.5600	 1.200E+01	 0.000E+00	 0.000E+00	-1.376E-01	-2.997E-03	-9.235E-02	 1.823E-01	 1.823E-01	 3.451E+00	-3.683E-01	 3.092E+00	 1.705E-01	-1.223E+00	 1.642E+01	-1.746E-01	 4.134E+00	 9.737E-03	 3.288E+00	-4.077E-01	 7.784E+00	-8.896E-01	 4.327E-04	 0.000E+00	 1.859E-04	 0.000E+00	 0.000E+00
    5.6000	 1.200E+01	 0.000E+00	 0.000E+00	-1.339E-01	-2.192E-03	-9.286E-02	 1.824E-01	 1.824E-01	 3.456E+00	-3.716E-01	 3.099E+00	 1.737E-01	-1.239E+00	 1.644E+01	-1.710E-01	 4.132E+00	 3.691E-03	 3.280E+00	-4.108E-01	 7.775E+00	-8.979E-01	 1.640E-04	 0.000E+00	 7.049E-05	 0.000E+00	 0.000E+00
    5.6400	 1.200E+01	 0.000E+00	 0.000E+00	-1.254E-01	-8.835E-04	-9.068E-02	 1.824E-01	 1.824E-01	 3.459E+00	-3.748E-01	 3.103E+00	 1.769E-01	-1.256E+00	 1.644E+01	-1.672E-01	 4.127E+00	-2.547E-03	 3.271E+00	-4.137E-01	 7.766E+00	-9.061E-01	-1.132E-04	 0.000E+00	-4.866E-05	 0.000E+00	 0.000E+00
    5.6800	 1.200E+01	 0.000E+00	 0.000E+00	-1.141E-01	 7.638E-04	-8.586E-02	 1.823E-01	 1.823E-01	 3.461E+00	-3.780E-01	 3.106E+00	 1.800E-01	-1.271E+00	 1.644E+01	-1.632E-01	 4.123E+00	-7.755E-03	 3.263E+00	-4.172E-01	 7.756E+00	-9.147E-01	-3.447E-04	 0.000E+00	-1.481E-04	 0.000E+00	 0.000E+00
    5.7200	 1.200E+01	 0.000E+00	 0.000E+00	-1.015E-01	 2.615E-03	-7.864E-02	 1.822E-01	 1.822E-01	 3.462E+00	-3.813E-01	 3.109E+00	 1.831E-01	-1.286E+00	 1.645E+01	-1.593E-01	 4.123E+00	-1.124E-02	 3.253E+00	-4.218E-01	 7.746E+00	-9.244E-01	-4.995E-04	 0.000E+00	-2.144E-04	 0.000E+00	 0.000E+00
    5.7600	 1.200E+01	 0.000E+00	 0.000E+00	-8.841E-02	 4.595E-03	-6.947E-02	 1.820E-01	 1.821E-01	 3.464E+00	-3.847E-01	 3.113E+00	 1.861E-01	-1.300E+00	 1.647E+01	-1.554E-01	 4.128E+00	-1.304E-02	 3.244E+00	-4.273E-01	 7.735E+00	-9.349E-01	-5.794E-04	 0.000E+00	-2.485E-04	 0.000E+00	 0.000E+00
    5.8000	 1.200E+01	 0.000E+00	 0.000E+00	-7.476E-02	 6.669E-03	-5.890E-02	 1.819E-01	 1.819E-01	 3.465E+00	-3.880E-01	 3.116E+00	 1.890E-01	-1.313E+00	 1.649E+01	-1.515E-01	 4.134E+00	-1.385E-02	 3.233E+00	-4.335E-01	 7.724E+00	-9.460E-01	-6.156E-04	 0.000E+00	-2.638E-04	 0.000E+00	 0.000E+00
    5.8400	 1.200E+01	 0.000E+00	 0.000E+00	-6.006E-02	 8.839E-03	-4.763E-02	 1.817E-01	 1.817E-01	 3.466E+00	-3.914E-01	 3.118E+00	 1.920E-01	-1.326E+00	 1.651E+01	-1.477E-01	 4.140E+00	-1.474E-02	 3.222E+00	-4.397E-01	 7.712E+00	-9.571E-01	-6.550E-04	 0.000E+00	-2.804E-04	 0.000E+00	 0.000E+00
    5.8800	 1.200E+01	 0.000E+00	 0.000E+00	-4.394E-02	 1.110E-02	-3.638E-02	 1.815E-01	 1.815E-01	 3.466E+00	-3.947E-01	 3.120E+00	 1.950E-01	-1.339E+00	 1.652E+01	-1.436E-01	 4.143E+00	-1.670E-02	 3.210E+00	-4.453E-01	 7.699E+00	-9.675E-01	-7.421E-04	 0.000E+00	-3.174E-04	 0.000E+00	 0.000E+00
    5.9200	 1.200E+01	 0.000E+00	 0.000E+00	-2.661E-02	 1.338E-02	-2.587E-02	 1.812E-01	 1.813E-01	 3.464E+00	-3.978E-01	 3.121E+00	 1.980E-01	-1.353E+00	 1.652E+01	-1.394E-01	 4.140E+00	-2.030E-02	 3.198E+00	-4.500E-01	 7.685E+00	-9.769E-01	-9.022E-04	 0.000E+00	-3.853E-04	 0.000E+00	 0.000E+00
    5.9600	 1.200E+01	 0.000E+00	 0.000E+00	-9.091E-03	 1.558E-02	-1.671E-02	 1.810E-01	 1.810E-01	 3.462E+00	-4.008E-01	 3.121E+00	 2.012E-01	-1.368E+00	 1.651E+01	-1.351E-01	 4.133E+00	-2.550E-02	 3.184E+00	-4.538E-01	 7.670E+00	-9.853E-01	-1.133E-03	 0.000E+00	-4.832E-04	 0.000E+00	 0.000E+00
    6.0000	 1.200E+01	 0.000E+00	 0.000E+00	 6.897E-03	 1.756E-02	-9.405E-03	 1.806E-01	 1.806E-01	 3.461E+00	-4.038E-01	 3.121E+00	 2.044E-01	-1.384E+00	 1.649E+01	-1.307E-01	 4.123E+00	-3.167E-02	 3.171E+00	-4.570E-01	 7.655E+00	-9.931E-01	-1.407E-03	 0.000E+00	-5.989E-04	-1.104E+01	-3.045E+03
    6.0400	 1.200E+01	 0.000E+00	 0.000E+00	 1.095E-01	-2.727E+01	-9.568E-02	 1.794E+00	 2.460E+00	 4.687E+00	 1.023E+01	 4.351E+00	 1.266E+01	-8.893E+01	 2.473E+01	-2.431E+01	 3.825E+00	-1.636E+02	-4.361E+00	 9.554E+01	 7.708E+00	 9.460E+01	-7.270E+00	 0.000E+00	-4.213E+01	-1.130E+01	-3.046E+03
    6.0800	 1.200E+01	 0.000E+00	 0.000E+00	 6.316E+00	-2.910E+01	-6.070E-01	 3.347E+00	 3.377E+00	 3.517E+00	 1.114E+01	 3.255E+00	 1.348E+01	-9.562E+01	 1.814E+01	-2.559E+01	 3.181E+00	-1.751E+02	-6.021E+00	 1.032E+02	 7.553E+00	 1.026E+02	-7.781E+00	 0.000E+00	-6.191E+01	-1.141E+01	-3.046E+03
    6.1200	 1.200E+01	 0.000E+00	 0.000E+00	 3.402E+00	-2.130E+01	-1.308E+00	 5.121E+00	 4.888E+00	 3.293E+00	 7.622E+00	 3.085E+00	 9.040E+00	-5.869E+01	 1.409E+01	-1.530E+01	 1.490E+00	-1.111E+02	-3.990E+00	 6.606E+01	 7.486E+00	 6.545E+01	-4.936E+00	 0.000E+00	-5.685E+01	-1.160E+01	-3.045E+03
    6.1600	 1.200E+01	 0.000E+00	 0.000E+00	 5.750E-01	-2.113E+01	-2.239E+00	 6.813E+00	 6.852E+00	 3.604E+00	 7.438E+00	 3.334E+00	 9.839E+00	-6.493E+01	 1.444E+01	-1.638E+01	 2.005E-03	-1.185E+02	-6.445E+00	 6.976E+01	 7.223E+00	 6.883E+01	-5.268E+00	 0.000E+00	-8.505E+01	-1.184E+01	-3.043E+03
    6.2000	 1.200E+01	 0.000E+00	 0.000E+00	 5.843E+00	-2.377E+01	-3.458E+00	 8.479E+00	 8.578E+00	 2.792E+00	 8.595E+00	 2.520E+00	 1.203E+01	-8.306E+01	 1.100E+01	-1.923E+01	-8.122E-02	-1.448E+02	-1.161E+01	 8.459E+01	 6.653E+00	 8.405E+01	-6.434E+00	 0.000E+00	-1.301E+02	-1.205E+01	-3.040E+03
    6.2400	 1.200E+01	 0.000E+00	 0.000E+00	 5.424E+00	-2.551E+01	-4.851E+00	 1.020E+01	 1.020E+01	 3.009E+00	 9.080E+00	 2.895E+00	 1.175E+01	-8.008E+01	 1.326E+01	-1.996E+01	 4.277E-01	-1.442E+02	-1.568E+01	 8.487E+01	 6.201E+00	 8.520E+01	-6.410E+00	 0.000E+00	-1.540E+02	-1.226E+01	-3.035E+03
    6.2800	 1.200E+01	 0.000E+00	 0.000E+00	 2.897E+00	-2.525E+01	-6.767E+00	 1.198E+01	 1.195E+01	 3.629E+00	 8.626E+00	 3.686E+00	 1.131E+01	-7.484E+01	 1.821E+01	-1.951E+01	 1.370E+00	-1.369E+02	-1.940E+01	 7.965E+01	 5.449E+00	 8.061E+01	-6.085E+00	 0.000E+00	-1.714E+02	-1.248E+01	-3.029E+03
    6.3200	 1.200E+01	 0.000E+00	 0.000E+00	 4.747E+00	-2.410E+01	-9.038E+00	 1.380E+01	 1.381E+01	 3.498E+00	 7.904E+00	 3.665E+00	 1.234E+01	-8.218E+01	 2.010E+01	-1.797E+01	 2.762E+00	-1.401E+02	-2.474E+01	 7.805E+01	 4.285E+00	 7.995E+01	-6.226E+00	 0.000E+00	-2.026E+02	-1.272E+01	-3.020E+03
    6.3600	 1.200E+01	 0.000E+00	 0.000E+00	 4.933E+00	-2.546E+01	-1.132E+01	 1.562E+01	 1.565E+01	 3.705E+00	 8.186E+00	 4.055E+00	 1.315E+01	-8.820E+01	 2.370E+01	-1.869E+01	 3.775E+00	-1.483E+02	-3.230E+01	 7.985E+01	 3.054E+00	 8.406E+01	-6.591E+00	 0.000E+00	-2.431E+02	-1.295E+01	-3.008E+03
    6.4000	 1.200E+01	 0.000E+00	 0.000E+00	 4.567E+00	-2.806E+01	-1.417E+01	 1.745E+01	 1.747E+01	 3.958E+00	 8.953E+00	 4.582E+00	 1.310E+01	-8.632E+01	 2.716E+01	-2.116E+01	 4.049E+00	-1.528E+02	-4.073E+01	 7.964E+01	 1.395E+00	 8.736E+01	-6.792E+00	 0.000E+00	-2.796E+02	-1.318E+01	-2.993E+03
    6.4400	 1.200E+01	 0.000E+00	 0.000E+00	 6.614E+00	-2.848E+01	-1.786E+01	 1.931E+01	 1.932E+01	 3.541E+00	 8.859E+00	 4.423E+00	 1.351E+01	-8.776E+01	 2.680E+01	-2.138E+01	 3.677E+00	-1.553E+02	-4.863E+01	 7.514E+01	-9.595E-01	 8.693E+01	-6.900E+00	 0.000E+00	-3.142E+02	-1.341E+01	-2.975E+03
    6.4800	 1.200E+01	 0.000E+00	 0.000E+00	 7.747E+00	-2.837E+01	-2.182E+01	 2.115E+01	 2.118E+01	 3.117E+00	 8.497E+00	 4.272E+00	 1.452E+01	-9.487E+01	 2.605E+01	-2.050E+01	 2.683E+00	-1.613E+02	-5.727E+01	 6.970E+01	-3.690E+00	 8.698E+01	-7.169E+00	 0.000E+00	-3.579E+02	-1.362E+01	-2.952E+03
    6.5200	 1.200E+01	 0.000E+00	 0.000E+00	 8.711E+00	-3.039E+01	-2.608E+01	 2.296E+01	 2.300E+01	 2.779E+00	 8.992E+00	 4.336E+00	 1.519E+01	-9.885E+01	 2.601E+01	-2.178E+01	 1.480E+00	-1.703E+02	-6.770E+01	 6.453E+01	-6.756E+00	 8.984E+01	-7.571E+00	 0.000E+00	-4.104E+02	-1.382E+01	-2.924E+03
    6.5600	 1.200E+01	 0.000E+00	 0.000E+00	 1.135E+01	-3.286E+01	-3.125E+01	 2.474E+01	 2.477E+01	 2.212E+00	 9.732E+00	 4.233E+00	 1.542E+01	-9.893E+01	 2.558E+01	-2.395E+01	 5.493E-01	-1.778E+02	-7.759E+01	 5.638E+01	-1.039E+01	 9.171E+01	-7.903E+00	 0.000E+00	-4.613E+02	-1.400E+01	-2.891E+03
    6.6000	 1.200E+01	 0.000E+00	 0.000E+00	 1.296E+01	-3.381E+01	-3.723E+01	 2.646E+01	 2.649E+01	 1.823E+00	 9.783E+00	 4.300E+00	 1.614E+01	-1.033E+02	 2.691E+01	-2.420E+01	 6.888E-02	-1.850E+02	-8.506E+01	 4.426E+01	-1.456E+01	 9.069E+01	-8.223E+00	 0.000E+00	-5.133E+02	-1.414E+01	-2.853E+03
    6.6400	 1.200E+01	 0.000E+00	 0.000E+00	 1.386E+01	-3.468E+01	-4.363E+01	 2.812E+01	 2.816E+01	 1.644E+00	 9.747E+00	 4.707E+00	 1.699E+01	-1.091E+02	 3.018E+01	-2.397E+01	 1.869E-01	-1.931E+02	-9.031E+01	 2.975E+01	-1.901E+01	 8.863E+01	-8.580E+00	 0.000E+00	-5.693E+02	-1.426E+01	-2.809E+03
    6.6800	 1.200E+01	 0.000E+00	 0.000E+00	 1.624E+01	-3.679E+01	-5.063E+01	 2.970E+01	 2.974E+01	 1.357E+00	 1.034E+01	 5.181E+00	 1.727E+01	-1.105E+02	 3.363E+01	-2.561E+01	 7.808E-01	-2.015E+02	-9.369E+01	 1.398E+01	-2.364E+01	 8.704E+01	-8.954E+00	 0.000E+00	-6.275E+02	-1.433E+01	-2.759E+03
    6.7200	 1.200E+01	 0.000E+00	 0.000E+00	 1.907E+01	-3.867E+01	-5.852E+01	 3.120E+01	 3.124E+01	 9.575E-01	 1.095E+01	 5.612E+00	 1.734E+01	-1.104E+02	 3.646E+01	-2.741E+01	 1.301E+00	-2.089E+02	-9.300E+01	-3.177E+00	-2.839E+01	 8.391E+01	-9.286E+00	 0.000E+00	-6.835E+02	-1.436E+01	-2.704E+03
    6.7600	 1.200E+01	 0.000E+00	 0.000E+00	 2.164E+01	-3.930E+01	-6.710E+01	 3.263E+01	 3.266E+01	 4.169E-01	 1.110E+01	 5.846E+00	 1.750E+01	-1.113E+02	 3.755E+01	-2.774E+01	 1.157E+00	-2.139E+02	-8.635E+01	-2.070E+01	-3.304E+01	 7.766E+01	-9.508E+00	 0.000E+00	-7.316E+02	-1.435E+01	-2.645E+03
    6.8000	 1.200E+01	 0.000E+00	 0.000E+00	 2.476E+01	-3.973E+01	-7.606E+01	 3.400E+01	 3.402E+01	-3.688E-01	 1.128E+01	 5.763E+00	 1.736E+01	-1.102E+02	 3.599E+01	-2.811E+01	 1.122E-01	-2.170E+02	-7.506E+01	-3.652E+01	-3.733E+01	 7.005E+01	-9.643E+00	 0.000E+00	-7.729E+02	-1.429E+01	-2.579E+03
    6.8400	 1.200E+01	 0.000E+00	 0.000E+00	 2.833E+01	-4.021E+01	-8.543E+01	 3.531E+01	 3.532E+01	-1.351E+00	 1.161E+01	 5.412E+00	 1.686E+01	-1.065E+02	 3.221E+01	-2.889E+01	-1.643E+00	-2.183E+02	-6.015E+01	-4.924E+01	-4.118E+01	 6.173E+01	-9.704E+00	 0.000E+00	-8.076E+02	-1.418E+01	-2.507E+03
    6.8800	 1.200E+01	 0.000E+00	 0.000E+00	 3.172E+01	-3.964E+01	-9.523E+01	 3.660E+01	 3.659E+01	-2.393E+00	 1.158E+01	 4.872E+00	 1.633E+01	-1.029E+02	 2.719E+01	-2.853E+01	-3.625E+00	-2.163E+02	-4.140E+01	-5.749E+01	-4.445E+01	 5.155E+01	-9.616E+00	 0.000E+00	-8.289E+02	-1.401E+01	-2.428E+03
    6.9200	 1.200E+01	 0.000E+00	 0.000E+00	 3.457E+01	-3.800E+01	-1.052E+02	 3.788E+01	 3.785E+01	-3.294E+00	 1.118E+01	 4.353E+00	 1.570E+01	-9.901E+01	 2.240E+01	-2.710E+01	-5.216E+00	-2.102E+02	-2.061E+01	-6.008E+01	-4.693E+01	 4.007E+01	-9.343E+00	 0.000E+00	-8.333E+02	-1.378E+01	-2.339E+03
    6.9600	 1.200E+01	 0.000E+00	 0.000E+00	 3.685E+01	-3.638E+01	-1.151E+02	 3.918E+01	 3.914E+01	-3.872E+00	 1.079E+01	 4.044E+00	 1.474E+01	-9.286E+01	 1.922E+01	-2.572E+01	-5.908E+00	-2.008E+02	-7.525E-01	-5.703E+01	-4.844E+01	 2.899E+01	-8.926E+00	 0.000E+00	-8.231E+02	-1.347E+01	-2.237E+03
    7.0000	 1.200E+01	 0.000E+00	 0.000E+00	 3.830E+01	-3.472E+01	-1.252E+02	 4.052E+01	 4.046E+01	-4.050E+00	 1.023E+01	 3.928E+00	 1.357E+01	-8.543E+01	 1.811E+01	-2.352E+01	-5.574E+00	-1.873E+02	 1.655E+01	-4.878E+01	-4.894E+01	 1.847E+01	-8.323E+00	 0.000E+00	-7.935E+02	-1.305E+01	-2.119E+03
    7.0400	 1.200E+01	 0.000E+00	 0.000E+00	 3.891E+01	-3.156E+01	-1.354E+02	 4.192E+01	 4.184E+01	-3.872E+00	 9.341E+00	 3.979E+00	 1.223E+01	-7.756E+01	 1.878E+01	-2.096E+01	-4.318E+00	-1.699E+02	 2.954E+01	-3.664E+01	-4.841E+01	 9.121E+00	-7.552E+00	 0.000E+00	-7.446E+02	-1.248E+01	-1.978E+03
    7.0800	 1.200E+01	 0.000E+00	 0.000E+00	 3.905E+01	-2.882E+01	-1.453E+02	 4.335E+01	 4.327E+01	-3.328E+00	 8.835E+00	 4.216E+00	 1.040E+01	-6.642E+01	 2.101E+01	-1.988E+01	-2.398E+00	-1.521E+02	 3.652E+01	-2.351E+01	-4.671E+01	 2.837E+00	-6.762E+00	 0.000E+00	-6.893E+02	-1.174E+01	-1.815E+03
    7.1200	 1.200E+01	 0.000E+00	 0.000E+00	 3.888E+01	-2.551E+01	-1.549E+02	 4.478E+01	 4.469E+01	-2.546E+00	 8.435E+00	 4.518E+00	 8.256E+00	-5.327E+01	 2.403E+01	-1.956E+01	-5.048E-02	-1.331E+02	 3.807E+01	-1.114E+01	-4.391E+01	-7.941E-01	-5.917E+00	 0.000E+00	-6.230E+02	-1.083E+01	-1.631E+03
    7.1600	 1.200E+01	 0.000E+00	 0.000E+00	 3.828E+01	-2.267E+01	-1.638E+02	 4.615E+01	 4.606E+01	-1.538E+00	 8.238E+00	 4.839E+00	 6.029E+00	-4.004E+01	 2.759E+01	-1.921E+01	 2.576E+00	-1.150E+02	 3.507E+01	-1.080E+00	-3.989E+01	-2.062E+00	-5.111E+00	 0.000E+00	-5.546E+02	-9.753E+00	-1.432E+03
    7.2000	 1.200E+01	 0.000E+00	 0.000E+00	 3.681E+01	-1.998E+01	-1.723E+02	 4.746E+01	 4.735E+01	-3.001E-01	 7.647E+00	 5.089E+00	 3.984E+00	-2.811E+01	 3.150E+01	-1.653E+01	 5.274E+00	-9.313E+01	 2.905E+01	 5.986E+00	-3.486E+01	-1.932E+00	-4.139E+00	 0.000E+00	-4.618E+02	-8.540E+00	-1.224E+03
    7.2400	 1.200E+01	 0.000E+00	 0.000E+00	 3.458E+01	-1.648E+01	-1.798E+02	 4.868E+01	 4.857E+01	 1.107E+00	 6.663E+00	 5.333E+00	 2.128E+00	-1.779E+01	 3.585E+01	-1.288E+01	 8.034E+00	-6.968E+01	 2.158E+01	 9.235E+00	-2.888E+01	-4.956E-01	-3.097E+00	 0.000E+00	-3.545E+02	-7.201E+00	-1.008E+03
    7.2800	 1.200E+01	 0.000E+00	 0.000E+00	 3.243E+01	-1.365E+01	-1.861E+02	 4.977E+01	 4.968E+01	 2.593E+00	 6.189E+00	 5.625E+00	 1.435E-01	-6.093E+00	 4.058E+01	-1.141E+01	 1.082E+01	-5.052E+01	 1.460E+01	 8.130E+00	-2.210E+01	 2.768E+00	-2.245E+00	 0.000E+00	-2.628E+02	-5.818E+00	-7.975E+02
    7.3200	 1.200E+01	 0.000E+00	 0.000E+00	 2.994E+01	-1.153E+01	-1.916E+02	 5.068E+01	 5.061E+01	 4.092E+00	 6.070E+00	 5.879E+00	-1.705E+00	 5.171E+00	 4.504E+01	-1.134E+01	 1.322E+01	-3.593E+01	 9.420E+00	 4.164E+00	-1.482E+01	 6.653E+00	-1.597E+00	 0.000E+00	-1.904E+02	-4.519E+00	-6.091E+02
    7.3600	 1.200E+01	 0.000E+00	 0.000E+00	 2.705E+01	-8.890E+00	-1.962E+02	 5.141E+01	 5.136E+01	 5.354E+00	 5.588E+00	 5.834E+00	-2.775E+00	 1.119E+01	 4.757E+01	-1.026E+01	 1.478E+01	-2.429E+01	 5.885E+00	-5.802E-01	-7.346E+00	 9.123E+00	-1.079E+00	 0.000E+00	-1.306E+02	-3.385E+00	-4.506E+02
    7.4000	 1.200E+01	 0.000E+00	 0.000E+00	 2.433E+01	-5.973E+00	-2.000E+02	 5.198E+01	 5.194E+01	 6.088E+00	 4.917E+00	 5.329E+00	-3.157E+00	 1.288E+01	 4.667E+01	-8.625E+00	 1.538E+01	-1.624E+01	 3.977E+00	-5.456E+00	-3.094E-02	 1.004E+01	-7.219E-01	 0.000E+00	-8.834E+01	-2.452E+00	-3.243E+02
    7.4400	 1.200E+01	 0.000E+00	 0.000E+00	 2.263E+01	-3.803E+00	-2.031E+02	 5.238E+01	 5.236E+01	 6.202E+00	 4.500E+00	 4.418E+00	-3.301E+00	 1.378E+01	 4.214E+01	-7.715E+00	 1.502E+01	-1.184E+01	 4.244E+00	-1.020E+01	 6.827E+00	 1.036E+01	-5.261E-01	 0.000E+00	-6.490E+01	-1.742E+00	-2.303E+02
    7.4800	 1.200E+01	 0.000E+00	 0.000E+00	 2.129E+01	-2.052E+00	-2.059E+02	 5.266E+01	 5.265E+01	 5.913E+00	 4.102E+00	 3.314E+00	-3.217E+00	 1.356E+01	 3.535E+01	-6.869E+00	 1.378E+01	-9.143E+00	 6.339E+00	-1.401E+01	 1.292E+01	 1.007E+01	-4.064E-01	 0.000E+00	-5.041E+01	-1.238E+00	-1.644E+02
    7.5200	 1.200E+01	 0.000E+00	 0.000E+00	 1.982E+01	-3.904E-01	-2.084E+02	 5.286E+01	 5.285E+01	 5.503E+00	 3.490E+00	 2.211E+00	-2.895E+00	 1.183E+01	 2.810E+01	-5.586E+00	 1.199E+01	-6.607E+00	 9.590E+00	-1.628E+01	 1.797E+01	 9.091E+00	-2.936E-01	 0.000E+00	-3.657E+01	-8.813E-01	-1.185E+02
    7.5600	 1.200E+01	 0.000E+00	 0.000E+00	 1.878E+01	 7.043E-01	-2.104E+02	 5.301E+01	 5.300E+01	 5.088E+00	 2.884E+00	 1.260E+00	-2.631E+00	 1.085E+01	 2.191E+01	-4.513E+00	 1.023E+01	-3.642E+00	 1.368E+01	-1.651E+01	 2.179E+01	 8.144E+00	-1.619E-01	 0.000E+00	-2.021E+01	-6.163E-01	-8.455E+01
    7.6000	 1.200E+01	 0.000E+00	 0.000E+00	 1.823E+01	 1.223E+00	-2.121E+02	 5.314E+01	 5.312E+01	 4.831E+00	 2.284E+00	 6.764E-01	-2.520E+00	 1.129E+01	 1.829E+01	-3.714E+00	 9.099E+00	 4.869E-01	 1.764E+01	-1.449E+01	 2.425E+01	 7.339E+00	 2.164E-02	 0.000E+00	 2.709E+00	-3.934E-01	-5.618E+01
    7.6400	 1.200E+01	 0.000E+00	 0.000E+00	 1.786E+01	 1.694E+00	-2.132E+02	 5.327E+01	 5.324E+01	 4.850E+00	 1.452E+00	 6.021E-01	-2.363E+00	 1.141E+01	 1.809E+01	-2.507E+00	 8.928E+00	 6.074E+00	 2.015E+01	-1.099E+01	 2.538E+01	 6.052E+00	 2.700E-01	 0.000E+00	 3.387E+01	-1.704E-01	-2.797E+01
    7.6800	 1.200E+01	 0.000E+00	 0.000E+00	 1.797E+01	 2.183E+00	-2.137E+02	 5.340E+01	 5.337E+01	 5.074E+00	 4.087E-01	 9.586E-01	-2.104E+00	 1.082E+01	 2.082E+01	-9.306E-01	 9.695E+00	 1.248E+01	 2.075E+01	-7.053E+00	 2.531E+01	 4.116E+00	 5.545E-01	 0.000E+00	 6.973E+01	 7.379E-02	 2.755E+00
    7.7200	 1.200E+01	 0.000E+00	 0.000E+00	 1.890E+01	 2.470E+00	-2.137E+02	 5.354E+01	 5.351E+01	 5.357E+00	-6.795E-01	 1.599E+00	-1.818E+00	 1.027E+01	 2.531E+01	 4.897E-01	 1.110E+01	 1.885E+01	 1.970E+01	-3.448E+00	 2.419E+01	 1.785E+00	 8.380E-01	 0.000E+00	 1.057E+02	 3.371E-01	 3.569E+01
    7.7600	 1.200E+01	 0.000E+00	 0.000E+00	 2.037E+01	 2.675E+00	-2.132E+02	 5.368E+01	 5.366E+01	 5.616E+00	-1.812E+00	 2.387E+00	-1.441E+00	 9.245E+00	 3.044E+01	 1.841E+00	 1.267E+01	 2.468E+01	 1.746E+01	-9.338E-01	 2.216E+01	-9.723E-01	 1.097E+00	 0.000E+00	 1.387E+02	 6.060E-01	 6.909E+01
    7.8000	 1.200E+01	 0.000E+00	 0.000E+00	 2.199E+01	 2.914E+00	-2.126E+02	 5.381E+01	 5.379E+01	 5.771E+00	-2.990E+00	 3.149E+00	-9.023E-01	 7.131E+00	 3.510E+01	 3.288E+00	 1.391E+01	 2.946E+01	 1.478E+01	 9.128E-02	 1.939E+01	-4.122E+00	 1.309E+00	 0.000E+00	 1.660E+02	 8.628E-01	 1.008E+02
    7.8400	 1.200E+01	 0.000E+00	 0.000E+00	 2.388E+01	 3.042E+00	-2.120E+02	 5.392E+01	 5.391E+01	 5.717E+00	-4.073E+00	 3.750E+00	-2.834E-01	 4.508E+00	 3.842E+01	 4.521E+00	 1.461E+01	 3.274E+01	 1.231E+01	-8.588E-02	 1.600E+01	-7.230E+00	 1.455E+00	 0.000E+00	 1.848E+02	 1.088E+00	 1.284E+02
    7.8800	 1.200E+01	 0.000E+00	 0.000E+00	 2.588E+01	 2.959E+00	-2.116E+02	 5.401E+01	 5.400E+01	 5.454E+00	-4.961E+00	 4.174E+00	 3.165E-01	 1.969E+00	 4.027E+01	 5.366E+00	 1.477E+01	 3.456E+01	 1.041E+01	-1.022E+00	 1.212E+01	-9.908E+00	 1.536E+00	 0.000E+00	 1.954E+02	 1.264E+00	 1.500E+02
    7.9200	 1.200E+01	 0.000E+00	 0.000E+00	 2.779E+01	 2.730E+00	-2.114E+02	 5.406E+01	 5.406E+01	 5.058E+00	-5.653E+00	 4.450E+00	 8.878E-01	-6.108E-01	 4.097E+01	 5.984E+00	 1.451E+01	 3.511E+01	 9.312E+00	-2.374E+00	 7.949E+00	-1.206E+01	 1.560E+00	 0.000E+00	 1.988E+02	 1.387E+00	 1.650E+02
    7.9600	 1.200E+01	 0.000E+00	 0.000E+00	 2.935E+01	 2.463E+00	-2.115E+02	 5.410E+01	 5.410E+01	 4.574E+00	-6.137E+00	 4.581E+00	 1.400E+00	-3.128E+00	 4.086E+01	 6.511E+00	 1.405E+01	 3.472E+01	 9.078E+00	-3.754E+00	 3.696E+00	-1.360E+01	 1.543E+00	 0.000E+00	 1.967E+02	 1.458E+00	 1.736E+02
    8.0000	 1.200E+01	 0.000E+00	 0.000E+00	 3.070E+01	 2.058E+00	-2.118E+02	 5.411E+01	 5.411E+01	 4.097E+00	-6.356E+00	 4.668E+00	 1.725E+00	-4.755E+00	 4.055E+01	 6.752E+00	 1.361E+01	 3.390E+01	 9.442E+00	-4.801E+00	-4.713E-01	-1.433E+01	 1.506E+00	 0.000E+00	 1.921E+02	 1.486E+00	 1.769E+02
    8.0400	 1.200E+01	 0.000E+00	 0.000E+00	 3.190E+01	 1.618E+00	-2.124E+02	 5.411E+01	 5.411E+01	 3.663E+00	-6.320E+00	 4.741E+00	 1.829E+00	-5.193E+00	 4.028E+01	 6.685E+00	 1.336E+01	 3.301E+01	 1.016E+01	-5.301E+00	-4.322E+00	-1.424E+01	 1.467E+00	 0.000E+00	 1.871E+02	 1.485E+00	 1.768E+02
    8.0800	 1.200E+01	 0.000E+00	 0.000E+00	 3.274E+01	 1.253E+00	-2.130E+02	 5.410E+01	 5.410E+01	 3.340E+00	-6.082E+00	 4.822E+00	 1.707E+00	-4.584E+00	 4.021E+01	 6.430E+00	 1.325E+01	 3.234E+01	 1.100E+01	-5.192E+00	-7.686E+00	-1.344E+01	 1.437E+00	 0.000E+00	 1.833E+02	 1.470E+00	 1.750E+02
    8.1200	 1.200E+01	 0.000E+00	 0.000E+00	 3.318E+01	 9.708E-01	-2.137E+02	 5.409E+01	 5.410E+01	 3.143E+00	-5.654E+00	 4.913E+00	 1.341E+00	-2.775E+00	 4.033E+01	 5.978E+00	 1.321E+01	 3.210E+01	 1.166E+01	-4.566E+00	-1.046E+01	-1.196E+01	 1.427E+00	 0.000E+00	 1.818E+02	 1.452E+00	 1.729E+02
    8.1600	 1.200E+01	 0.000E+00	 0.000E+00	 3.348E+01	 7.671E-01	-2.145E+02	 5.409E+01	 5.409E+01	 3.031E+00	-5.050E+00	 4.981E+00	 7.325E-01	 2.797E-01	 4.039E+01	 5.308E+00	 1.319E+01	 3.232E+01	 1.190E+01	-3.644E+00	-1.257E+01	-9.838E+00	 1.436E+00	 0.000E+00	 1.831E+02	 1.443E+00	 1.717E+02
    8.2000	 1.200E+01	 0.000E+00	 0.000E+00	 3.357E+01	 6.894E-01	-2.152E+02	 5.409E+01	 5.409E+01	 3.001E+00	-4.321E+00	 5.033E+00	-5.794E-02	 4.185E+00	 4.036E+01	 4.524E+00	 1.314E+01	 3.291E+01	 1.171E+01	-2.660E+00	-1.398E+01	-7.231E+00	 1.463E+00	 0.000E+00	 1.864E+02	 1.446E+00	 1.721E+02
    8.2400	 1.200E+01	 0.000E+00	 0.000E+00	 3.347E+01	 7.373E-01	-2.159E+02	 5.410E+01	 5.410E+01	 3.049E+00	-3.504E+00	 5.060E+00	-9.836E-01	 8.710E+00	 4.024E+01	 3.687E+00	 1.306E+01	 3.382E+01	 1.111E+01	-1.842E+00	-1.464E+01	-4.266E+00	 1.503E+00	 0.000E+00	 1.916E+02	 1.462E+00	 1.741E+02
    8.2800	 1.200E+01	 0.000E+00	 0.000E+00	 3.320E+01	 8.371E-01	-2.165E+02	 5.412E+01	 5.412E+01	 3.176E+00	-2.612E+00	 5.068E+00	-2.019E+00	 1.382E+01	 4.017E+01	 2.748E+00	 1.299E+01	 3.494E+01	 1.027E+01	-1.422E+00	-1.457E+01	-1.015E+00	 1.553E+00	 0.000E+00	 1.980E+02	 1.492E+00	 1.777E+02
    8.3200	 1.200E+01	 0.000E+00	 0.000E+00	 3.274E+01	 9.681E-01	-2.169E+02	 5.414E+01	 5.414E+01	 3.393E+00	-1.688E+00	 5.080E+00	-3.104E+00	 1.921E+01	 4.035E+01	 1.741E+00	 1.299E+01	 3.613E+01	 9.434E+00	-1.458E+00	-1.383E+01	 2.352E+00	 1.606E+00	 0.000E+00	 2.048E+02	 1.531E+00	 1.824E+02
    8.3600	 1.200E+01	 0.000E+00	 0.000E+00	 3.210E+01	 1.180E+00	-2.172E+02	 5.416E+01	 5.416E+01	 3.687E+00	-8.037E-01	 5.105E+00	-4.152E+00	 2.437E+01	 4.083E+01	 7.772E-01	 1.311E+01	 3.729E+01	 8.829E+00	-1.812E+00	-1.248E+01	 5.591E+00	 1.657E+00	 0.000E+00	 2.115E+02	 1.576E+00	 1.879E+02
    8.4000	 1.200E+01	 0.000E+00	 0.000E+00	 3.133E+01	 1.482E+00	-2.173E+02	 5.419E+01	 5.418E+01	 4.029E+00	-7.599E-03	 5.133E+00	-5.094E+00	 2.895E+01	 4.152E+01	-9.339E-02	 1.333E+01	 3.825E+01	 8.562E+00	-2.297E+00	-1.062E+01	 8.504E+00	 1.700E+00	 0.000E+00	 2.170E+02	 1.622E+00	 1.935E+02
    8.4400	 1.200E+01	 0.000E+00	 0.000E+00	 3.058E+01	 1.847E+00	-2.173E+02	 5.421E+01	 5.420E+01	 4.361E+00	 6.696E-01	 5.140E+00	-5.881E+00	 3.276E+01	 4.216E+01	-8.653E-01	 1.361E+01	 3.890E+01	 8.632E+00	-2.733E+00	-8.343E+00	 1.094E+01	 1.729E+00	 0.000E+00	 2.208E+02	 1.664E+00	 1.985E+02
    8.4800	 1.200E+01	 0.000E+00	 0.000E+00	 2.980E+01	 2.274E+00	-2.173E+02	 5.422E+01	 5.422E+01	 4.654E+00	 1.188E+00	 5.095E+00	-6.459E+00	 3.550E+01	 4.254E+01	-1.445E+00	 1.386E+01	 3.920E+01	 8.933E+00	-2.942E+00	-5.795E+00	 1.275E+01	 1.742E+00	 0.000E+00	 2.225E+02	 1.696E+00	 2.024E+02
    8.5200	 1.200E+01	 0.000E+00	 0.000E+00	 2.907E+01	 2.740E+00	-2.173E+02	 5.423E+01	 5.423E+01	 4.877E+00	 1.518E+00	 4.986E+00	-6.800E+00	 3.706E+01	 4.249E+01	-1.810E+00	 1.397E+01	 3.917E+01	 9.309E+00	-2.851E+00	-3.110E+00	 1.384E+01	 1.741E+00	 0.000E+00	 2.225E+02	 1.717E+00	 2.049E+02
    8.5600	 1.200E+01	 0.000E+00	 0.000E+00	 2.850E+01	 3.180E+00	-2.174E+02	 5.423E+01	 5.423E+01	 5.010E+00	 1.662E+00	 4.796E+00	-6.905E+00	 3.745E+01	 4.189E+01	-1.953E+00	 1.391E+01	 3.884E+01	 9.623E+00	-2.476E+00	-4.268E-01	 1.422E+01	 1.726E+00	 0.000E+00	 2.206E+02	 1.725E+00	 2.059E+02
    8.6000	 1.200E+01	 0.000E+00	 0.000E+00	 2.797E+01	 3.526E+00	-2.175E+02	 5.423E+01	 5.423E+01	 5.074E+00	 1.632E+00	 4.557E+00	-6.802E+00	 3.682E+01	 4.092E+01	-1.894E+00	 1.370E+01	 3.830E+01	 9.787E+00	-1.883E+00	 2.129E+00	 1.395E+01	 1.702E+00	 0.000E+00	 2.175E+02	 1.720E+00	 2.053E+02
    8.6400	 1.200E+01	 0.000E+00	 0.000E+00	 2.753E+01	 3.724E+00	-2.176E+02	 5.422E+01	 5.422E+01	 5.073E+00	 1.455E+00	 4.314E+00	-6.536E+00	 3.543E+01	 3.979E+01	-1.668E+00	 1.345E+01	 3.770E+01	 9.762E+00	-1.126E+00	 4.431E+00	 1.314E+01	 1.676E+00	 0.000E+00	 2.141E+02	 1.707E+00	 2.037E+02
    8.6800	 1.200E+01	 0.000E+00	 0.000E+00	 2.735E+01	 3.777E+00	-2.177E+02	 5.421E+01	 5.421E+01	 5.034E+00	 1.125E+00	 4.101E+00	-6.122E+00	 3.335E+01	 3.871E+01	-1.274E+00	 1.324E+01	 3.716E+01	 9.477E+00	-3.215E-01	 6.412E+00	 1.184E+01	 1.652E+00	 0.000E+00	 2.110E+02	 1.688E+00	 2.014E+02
    8.7200	 1.200E+01	 0.000E+00	 0.000E+00	 2.731E+01	 3.708E+00	-2.177E+02	 5.420E+01	 5.420E+01	 4.993E+00	 6.414E-01	 3.947E+00	-5.569E+00	 3.060E+01	 3.792E+01	-7.055E-01	 1.312E+01	 3.676E+01	 8.918E+00	 3.771E-01	 8.037E+00	 1.007E+01	 1.634E+00	 0.000E+00	 2.086E+02	 1.667E+00	 1.989E+02
    8.7600	 1.200E+01	 0.000E+00	 0.000E+00	 2.731E+01	 3.543E+00	-2.176E+02	 5.419E+01	 5.420E+01	 4.976E+00	 1.661E-02	 3.857E+00	-4.904E+00	 2.735E+01	 3.758E+01	 1.089E-02	 1.309E+01	 3.656E+01	 8.142E+00	 8.494E-01	 9.256E+00	 7.919E+00	 1.625E+00	 0.000E+00	 2.075E+02	 1.650E+00	 1.968E+02
    8.8000	 1.200E+01	 0.000E+00	 0.000E+00	 2.739E+01	 3.327E+00	-2.173E+02	 5.419E+01	 5.419E+01	 4.977E+00	-7.312E-01	 3.835E+00	-4.148E+00	 2.372E+01	 3.766E+01	 8.363E-01	 1.314E+01	 3.657E+01	 7.241E+00	 9.985E-01	 1.002E+01	 5.432E+00	 1.626E+00	 0.000E+00	 2.075E+02	 1.638E+00	 1.954E+02