
Predictions were generated on 25-Aug-2015 at 13:28:00 using FAST (v8.12.00a-bjj-prerelease, 25-Aug-2015), compiled as a 32-bit application using single precision
 linked with  NWTC Subroutine Library (v2.06.03a-bjj, 14-Aug-2015); ElastoDyn (v1.03.00a-bjj, 9-Jul-2015); InflowWind (v3.01.00a-adp, 10-Aug-2015); AeroDyn14 (v14.04.00a-bjj, 14-Apr-2015); ServoDyn (v1.03.00a-bjj, 20-Aug-2015)

Description from the FAST input file: FAST Certification Test #15: SWRT 3-bladed upwind turbine with many DOFs, variable speed control, free yaw, tail-furl, EOG01 event

Time      	Wind1VelX 	Wind1VelY 	Wind1VelZ 	TipClrnc1 	TipClrnc2 	TipClrnc3 	RotSpeed  	TailFurlP 	TailFurlV 	TailFurlA 	NacYawP   	RotThrust 	TFrlBrM   
(s)       	(m/s)     	(m/s)     	(m/s)     	(m)       	(m)       	(m)       	(rpm)     	(deg)     	(deg/s)   	(deg/s^2) 	(deg)     	(kN)      	(kN·m)    
    0.0000	 1.188E+01	 0.000E+00	 1.670E+00	 3.507E+00	 2.682E+00	 2.682E+00	 1.880E+02	 0.000E+00	 0.000E+00	 0.000E+00	 0.000E+00	 1.632E-01	 0.000E+00
    0.0010	 1.188E+01	 0.000E+00	 1.670E+00	 3.507E+00	 2.657E+00	 2.706E+00	 1.880E+02	 0.000E+00	 0.000E+00	 0.000E+00	-8.488E-07	 1.486E-01	 0.000E+00
    0.0020	 1.188E+01	 0.000E+00	 1.670E+00	 3.506E+00	 2.631E+00	 2.729E+00	 1.880E+02	 0.000E+00	 0.000E+00	 0.000E+00	-2.971E-07	 2.306E-01	 0.000E+00
    0.0030	 1.188E+01	 0.000E+00	 1.670E+00	 3.506E+00	 2.605E+00	 2.751E+00	 1.880E+02	 0.000E+00	 0.000E+00	 0.000E+00	 4.664E-06	 1.703E-01	 0.000E+00
    0.0040	 1.188E+01	 0.000E+00	 1.670E+00	 3.505E+00	 2.578E+00	 2.772E+00	 1.881E+02	 0.000E+00	 0.000E+00	 0.000E+00	 1.335E-05	 2.110E-01	 0.000E+00
    0.0050	 1.188E+01	 0.000E+00	 1.670E+00	 3.505E+00	 2.550E+00	 2.792E+00	 1.881E+02	 0.000E+00	 0.000E+00	 0.000E+00	 2.702E-05	 2.303E-01	 0.000E+00
    0.0060	 1.188E+01	 0.000E+00	 1.670E+00	 3.504E+00	 2.521E+00	 2.812E+00	 1.881E+02	 0.000E+00	 0.000E+00	 0.000E+00	 4.634E-05	 2.527E-01	 0.000E+00
    0.0070	 1.188E+01	 0.000E+00	 1.670E+00	 3.502E+00	 2.491E+00	 2.830E+00	 1.881E+02	 0.000E+00	 0.000E+00	 0.000E+00	 7.154E-05	 2.777E-01	 0.000E+00
    0.0080	 1.188E+01	 0.000E+00	 1.670E+00	 3.501E+00	 2.461E+00	 2.848E+00	 1.880E+02	 0.000E+00	 0.000E+00	 0.000E+00	 1.024E-04	 3.051E-01	 0.000E+00
    0.0090	 1.188E+01	 0.000E+00	 1.670E+00	 3.500E+00	 2.430E+00	 2.864E+00	 1.880E+02	 0.000E+00	 0.000E+00	 0.000E+00	 1.385E-04	 3.345E-01	 0.000E+00
    0.0100	 1.188E+01	 0.000E+00	 1.670E+00	 3.498E+00	 2.399E+00	 2.880E+00	 1.880E+02	 0.000E+00	 0.000E+00	 0.000E+00	 1.790E-04	 3.655E-01	 0.000E+00
    0.0110	 1.188E+01	 0.000E+00	 1.670E+00	 3.496E+00	 2.366E+00	 2.894E+00	 1.880E+02	 0.000E+00	 0.000E+00	 0.000E+00	 2.226E-04	 3.979E-01	 0.000E+00
    0.0120	 1.188E+01	 0.000E+00	 1.670E+00	 3.494E+00	 2.333E+00	 2.908E+00	 1.880E+02	 0.000E+00	 0.000E+00	 0.000E+00	 2.677E-04	 4.308E-01	 0.000E+00
    0.0130	 1.188E+01	 0.000E+00	 1.670E+00	 3.492E+00	 2.300E+00	 2.921E+00	 1.880E+02	 0.000E+00	 0.000E+00	 0.000E+00	 3.125E-04	 4.645E-01	 0.000E+00
    0.0140	 1.188E+01	 0.000E+00	 1.670E+00	 3.490E+00	 2.266E+00	 2.932E+00	 1.880E+02	 0.000E+00	 0.000E+00	 0.000E+00	 3.547E-04	 4.982E-01	 0.000E+00
    0.0150	 1.188E+01	 0.000E+00	 1.670E+00	 3.487E+00	 2.231E+00	 2.943E+00	 1.880E+02	 0.000E+00	 0.000E+00	 0.000E+00	 3.920E-04	 5.317E-01	 0.000E+00
    0.0160	 1.188E+01	 0.000E+00	 1.670E+00	 3.485E+00	 2.196E+00	 2.952E+00	 1.880E+02	 0.000E+00	 0.000E+00	 0.000E+00	 4.216E-04	 5.645E-01	 0.000E+00
    0.0170	 1.188E+01	 0.000E+00	 1.670E+00	 3.482E+00	 2.160E+00	 2.962E+00	 1.880E+02	 0.000E+00	 0.000E+00	 0.000E+00	 4.410E-04	 5.963E-01	 0.000E+00
    0.0180	 1.188E+01	 0.000E+00	 1.670E+00	 3.479E+00	 2.124E+00	 2.971E+00	 1.880E+02	 0.000E+00	 0.000E+00	 0.000E+00	 4.471E-04	 6.270E-01	 0.000E+00
    0.0190	 1.188E+01	 0.000E+00	 1.670E+00	 3.476E+00	 2.088E+00	 2.981E+00	 1.880E+02	 0.000E+00	 0.000E+00	 0.000E+00	 4.372E-04	 6.560E-01	 0.000E+00
    0.0200	 1.188E+01	 0.000E+00	 1.670E+00	 3.472E+00	 2.051E+00	 2.990E+00	 1.880E+02	 0.000E+00	 0.000E+00	 0.000E+00	 4.082E-04	 6.834E-01	 0.000E+00
    0.0210	 1.188E+01	 0.000E+00	 1.670E+00	 3.469E+00	 2.013E+00	 3.000E+00	 1.881E+02	 0.000E+00	 0.000E+00	 0.000E+00	 3.575E-04	 7.089E-01	 0.000E+00
    0.0220	 1.188E+01	 0.000E+00	 1.670E+00	 3.465E+00	 1.976E+00	 3.009E+00	 1.881E+02	 0.000E+00	 0.000E+00	 0.000E+00	 2.824E-04	 7.319E-01	 0.000E+00
    0.0230	 1.188E+01	 0.000E+00	 1.670E+00	 3.461E+00	 1.938E+00	 3.019E+00	 1.881E+02	 0.000E+00	 0.000E+00	 0.000E+00	 1.805E-04	 7.528E-01	 0.000E+00
    0.0240	 1.188E+01	 0.000E+00	 1.670E+00	 3.457E+00	 1.900E+00	 3.028E+00	 1.881E+02	 0.000E+00	 0.000E+00	 0.000E+00	 4.935E-05	 7.712E-01	 0.000E+00
    0.0250	 1.188E+01	 0.000E+00	 1.670E+00	 3.453E+00	 1.861E+00	 3.037E+00	 1.881E+02	 0.000E+00	 0.000E+00	 0.000E+00	-1.128E-04	 7.872E-01	 0.000E+00
    0.0260	 1.188E+01	 0.000E+00	 1.670E+00	 3.449E+00	 1.823E+00	 3.046E+00	 1.881E+02	 0.000E+00	 0.000E+00	 0.000E+00	-3.075E-04	 8.008E-01	 0.000E+00
    0.0270	 1.188E+01	 0.000E+00	 1.670E+00	 3.444E+00	 1.784E+00	 3.056E+00	 1.881E+02	 0.000E+00	 0.000E+00	 0.000E+00	-5.361E-04	 8.119E-01	 0.000E+00
    0.0280	 1.188E+01	 0.000E+00	 1.670E+00	 3.439E+00	 1.746E+00	 3.065E+00	 1.881E+02	 0.000E+00	 0.000E+00	 0.000E+00	-7.994E-04	 8.207E-01	 0.000E+00
    0.0290	 1.188E+01	 0.000E+00	 1.670E+00	 3.434E+00	 1.707E+00	 3.074E+00	 1.881E+02	 0.000E+00	 0.000E+00	 0.000E+00	-1.098E-03	 8.272E-01	 0.000E+00
    0.0300	 1.188E+01	 0.000E+00	 1.670E+00	 3.429E+00	 1.669E+00	 3.083E+00	 1.881E+02	 0.000E+00	 0.000E+00	 0.000E+00	-1.431E-03	 8.317E-01	 0.000E+00
    0.0310	 1.188E+01	 0.000E+00	 1.670E+00	 3.424E+00	 1.631E+00	 3.092E+00	 1.881E+02	 0.000E+00	 0.000E+00	 0.000E+00	-1.800E-03	 8.342E-01	 0.000E+00
    0.0320	 1.188E+01	 0.000E+00	 1.670E+00	 3.419E+00	 1.593E+00	 3.101E+00	 1.881E+02	 0.000E+00	 0.000E+00	 0.000E+00	-2.202E-03	 8.351E-01	 0.000E+00
    0.0330	 1.188E+01	 0.000E+00	 1.670E+00	 3.413E+00	 1.556E+00	 3.110E+00	 1.881E+02	 0.000E+00	 0.000E+00	 0.000E+00	-2.636E-03	 8.346E-01	 0.000E+00
    0.0340	 1.188E+01	 0.000E+00	 1.670E+00	 3.407E+00	 1.519E+00	 3.119E+00	 1.881E+02	 0.000E+00	 0.000E+00	 0.000E+00	-3.102E-03	 8.329E-01	 0.000E+00
    0.0350	 1.188E+01	 0.000E+00	 1.670E+00	 3.402E+00	 1.482E+00	 3.128E+00	 1.881E+02	 0.000E+00	 0.000E+00	 0.000E+00	-3.596E-03	 8.304E-01	 0.000E+00
    0.0360	 1.188E+01	 0.000E+00	 1.670E+00	 3.396E+00	 1.446E+00	 3.137E+00	 1.881E+02	 0.000E+00	 0.000E+00	 0.000E+00	-4.117E-03	 8.273E-01	 0.000E+00
    0.0370	 1.188E+01	 0.000E+00	 1.670E+00	 3.389E+00	 1.411E+00	 3.146E+00	 1.882E+02	 0.000E+00	 0.000E+00	 0.000E+00	-4.662E-03	 8.239E-01	 0.000E+00
    0.0380	 1.188E+01	 0.000E+00	 1.670E+00	 3.383E+00	 1.377E+00	 3.154E+00	 1.882E+02	 0.000E+00	 0.000E+00	 0.000E+00	-5.228E-03	 8.206E-01	 0.000E+00
    0.0390	 1.188E+01	 0.000E+00	 1.670E+00	 3.377E+00	 1.344E+00	 3.163E+00	 1.882E+02	 0.000E+00	 0.000E+00	 0.000E+00	-5.811E-03	 8.177E-01	 0.000E+00
    0.0400	 1.188E+01	 0.000E+00	 1.670E+00	 3.370E+00	 1.312E+00	 3.171E+00	 1.882E+02	 0.000E+00	 0.000E+00	 0.000E+00	-6.409E-03	 8.155E-01	 0.000E+00
    0.0410	 1.188E+01	 0.000E+00	 1.670E+00	 3.363E+00	 1.282E+00	 3.180E+00	 1.882E+02	 0.000E+00	 0.000E+00	 0.000E+00	-7.018E-03	 8.142E-01	 0.000E+00
    0.0420	 1.188E+01	 0.000E+00	 1.670E+00	 3.356E+00	 1.253E+00	 3.188E+00	 1.882E+02	 0.000E+00	 0.000E+00	 0.000E+00	-7.634E-03	 8.141E-01	 0.000E+00
    0.0430	 1.188E+01	 0.000E+00	 1.670E+00	 3.349E+00	 1.225E+00	 3.197E+00	 1.883E+02	 0.000E+00	 0.000E+00	 0.000E+00	-8.255E-03	 8.156E-01	 0.000E+00
    0.0440	 1.188E+01	 0.000E+00	 1.670E+00	 3.342E+00	 1.200E+00	 3.205E+00	 1.883E+02	 0.000E+00	 0.000E+00	 0.000E+00	-8.876E-03	 8.189E-01	 0.000E+00
    0.0450	 1.188E+01	 0.000E+00	 1.670E+00	 3.335E+00	 1.176E+00	 3.213E+00	 1.883E+02	 0.000E+00	 0.000E+00	 0.000E+00	-9.494E-03	 8.241E-01	 0.000E+00
    0.0460	 1.188E+01	 0.000E+00	 1.670E+00	 3.328E+00	 1.154E+00	 3.221E+00	 1.883E+02	 0.000E+00	 0.000E+00	 0.000E+00	-1.011E-02	 8.315E-01	 0.000E+00
    0.0470	 1.188E+01	 0.000E+00	 1.670E+00	 3.320E+00	 1.135E+00	 3.229E+00	 1.883E+02	 0.000E+00	 0.000E+00	 0.000E+00	-1.071E-02	 8.411E-01	 0.000E+00
    0.0480	 1.188E+01	 0.000E+00	 1.670E+00	 3.312E+00	 1.118E+00	 3.237E+00	 1.884E+02	 0.000E+00	 0.000E+00	 0.000E+00	-1.131E-02	 8.532E-01	 0.000E+00
    0.0490	 1.188E+01	 0.000E+00	 1.670E+00	 3.305E+00	 1.104E+00	 3.245E+00	 1.884E+02	 0.000E+00	 0.000E+00	 0.000E+00	-1.188E-02	 8.677E-01	 0.000E+00
    0.0500	 1.188E+01	 0.000E+00	 1.670E+00	 3.297E+00	 1.092E+00	 3.252E+00	 1.884E+02	 0.000E+00	 0.000E+00	 0.000E+00	-1.245E-02	 8.848E-01	 0.000E+00
    0.0510	 1.188E+01	 0.000E+00	 1.670E+00	 3.289E+00	 1.083E+00	 3.260E+00	 1.884E+02	 0.000E+00	 0.000E+00	 0.000E+00	-1.300E-02	 9.044E-01	 0.000E+00
    0.0520	 1.188E+01	 0.000E+00	 1.670E+00	 3.281E+00	 1.077E+00	 3.267E+00	 1.884E+02	 0.000E+00	 0.000E+00	 0.000E+00	-1.353E-02	 9.265E-01	 0.000E+00
    0.0530	 1.188E+01	 0.000E+00	 1.670E+00	 3.272E+00	 1.074E+00	 3.275E+00	 1.885E+02	 0.000E+00	 0.000E+00	 0.000E+00	-1.404E-02	 9.510E-01	 0.000E+00
    0.0540	 1.188E+01	 0.000E+00	 1.670E+00	 3.264E+00	 1.074E+00	 3.282E+00	 1.885E+02	 0.000E+00	 0.000E+00	 0.000E+00	-1.453E-02	 9.778E-01	 0.000E+00
    0.0550	 1.188E+01	 0.000E+00	 1.670E+00	 3.256E+00	 1.076E+00	 3.289E+00	 1.885E+02	 0.000E+00	 0.000E+00	 0.000E+00	-1.501E-02	 1.007E+00	 0.000E+00
    0.0560	 1.188E+01	 0.000E+00	 1.670E+00	 3.247E+00	 1.082E+00	 3.296E+00	 1.885E+02	 0.000E+00	 0.000E+00	 0.000E+00	-1.546E-02	 1.038E+00	 0.000E+00
    0.0570	 1.188E+01	 0.000E+00	 1.670E+00	 3.239E+00	 1.091E+00	 3.303E+00	 1.886E+02	 0.000E+00	 0.000E+00	 0.000E+00	-1.590E-02	 1.070E+00	 0.000E+00
    0.0580	 1.188E+01	 0.000E+00	 1.670E+00	 3.230E+00	 1.102E+00	 3.310E+00	 1.886E+02	 0.000E+00	 0.000E+00	 0.000E+00	-1.633E-02	 1.105E+00	 0.000E+00
    0.0590	 1.188E+01	 0.000E+00	 1.670E+00	 3.221E+00	 1.116E+00	 3.317E+00	 1.886E+02	 0.000E+00	 0.000E+00	 0.000E+00	-1.674E-02	 1.140E+00	 0.000E+00
    0.0600	 1.188E+01	 0.000E+00	 1.670E+00	 3.212E+00	 1.133E+00	 3.324E+00	 1.886E+02	 0.000E+00	 0.000E+00	 0.000E+00	-1.714E-02	 1.177E+00	 0.000E+00
    0.0610	 1.188E+01	 0.000E+00	 1.670E+00	 3.203E+00	 1.152E+00	 3.330E+00	 1.887E+02	 0.000E+00	 0.000E+00	 0.000E+00	-1.753E-02	 1.214E+00	 0.000E+00
    0.0620	 1.188E+01	 0.000E+00	 1.670E+00	 3.194E+00	 1.173E+00	 3.337E+00	 1.887E+02	 0.000E+00	 0.000E+00	 0.000E+00	-1.792E-02	 1.252E+00	 0.000E+00
    0.0630	 1.188E+01	 0.000E+00	 1.670E+00	 3.185E+00	 1.197E+00	 3.343E+00	 1.887E+02	 0.000E+00	 0.000E+00	 0.000E+00	-1.830E-02	 1.290E+00	 0.000E+00
    0.0640	 1.188E+01	 0.000E+00	 1.670E+00	 3.176E+00	 1.222E+00	 3.349E+00	 1.888E+02	 0.000E+00	 0.000E+00	 0.000E+00	-1.869E-02	 1.327E+00	 0.000E+00
    0.0650	 1.188E+01	 0.000E+00	 1.670E+00	 3.167E+00	 1.250E+00	 3.355E+00	 1.888E+02	 0.000E+00	 0.000E+00	 0.000E+00	-1.908E-02	 1.365E+00	 0.000E+00
    0.0660	 1.188E+01	 0.000E+00	 1.670E+00	 3.157E+00	 1.278E+00	 3.361E+00	 1.888E+02	 0.000E+00	 0.000E+00	 0.000E+00	-1.948E-02	 1.401E+00	 0.000E+00
    0.0670	 1.188E+01	 0.000E+00	 1.670E+00	 3.148E+00	 1.309E+00	 3.367E+00	 1.889E+02	 0.000E+00	 0.000E+00	 0.000E+00	-1.988E-02	 1.436E+00	 0.000E+00
    0.0680	 1.188E+01	 0.000E+00	 1.670E+00	 3.138E+00	 1.340E+00	 3.373E+00	 1.889E+02	 0.000E+00	 0.000E+00	 0.000E+00	-2.031E-02	 1.470E+00	 0.000E+00
    0.0690	 1.188E+01	 0.000E+00	 1.670E+00	 3.129E+00	 1.373E+00	 3.378E+00	 1.889E+02	 0.000E+00	 0.000E+00	 0.000E+00	-2.075E-02	 1.503E+00	 0.000E+00
    0.0700	 1.188E+01	 0.000E+00	 1.670E+00	 3.119E+00	 1.407E+00	 3.383E+00	 1.889E+02	 0.000E+00	 0.000E+00	 0.000E+00	-2.121E-02	 1.533E+00	 0.000E+00
    0.0710	 1.188E+01	 0.000E+00	 1.670E+00	 3.109E+00	 1.442E+00	 3.389E+00	 1.890E+02	 0.000E+00	 0.000E+00	 0.000E+00	-2.170E-02	 1.562E+00	 0.000E+00
    0.0720	 1.188E+01	 0.000E+00	 1.670E+00	 3.100E+00	 1.477E+00	 3.394E+00	 1.890E+02	 0.000E+00	 0.000E+00	 0.000E+00	-2.221E-02	 1.589E+00	 0.000E+00
    0.0730	 1.188E+01	 0.000E+00	 1.670E+00	 3.090E+00	 1.513E+00	 3.399E+00	 1.890E+02	 0.000E+00	 0.000E+00	 0.000E+00	-2.275E-02	 1.613E+00	 0.000E+00
    0.0740	 1.188E+01	 0.000E+00	 1.670E+00	 3.080E+00	 1.550E+00	 3.404E+00	 1.891E+02	 0.000E+00	 0.000E+00	 0.000E+00	-2.333E-02	 1.634E+00	 0.000E+00
    0.0750	 1.188E+01	 0.000E+00	 1.670E+00	 3.070E+00	 1.588E+00	 3.408E+00	 1.891E+02	 0.000E+00	 0.000E+00	 0.000E+00	-2.394E-02	 1.653E+00	 0.000E+00
    0.0760	 1.188E+01	 0.000E+00	 1.670E+00	 3.060E+00	 1.625E+00	 3.413E+00	 1.891E+02	 0.000E+00	 0.000E+00	 0.000E+00	-2.458E-02	 1.670E+00	 0.000E+00
    0.0770	 1.188E+01	 0.000E+00	 1.670E+00	 3.050E+00	 1.663E+00	 3.417E+00	 1.892E+02	 0.000E+00	 0.000E+00	 0.000E+00	-2.526E-02	 1.684E+00	 0.000E+00
    0.0780	 1.188E+01	 0.000E+00	 1.670E+00	 3.040E+00	 1.701E+00	 3.422E+00	 1.892E+02	 0.000E+00	 0.000E+00	 0.000E+00	-2.598E-02	 1.695E+00	 0.000E+00
    0.0790	 1.188E+01	 0.000E+00	 1.670E+00	 3.030E+00	 1.740E+00	 3.426E+00	 1.893E+02	 0.000E+00	 0.000E+00	 0.000E+00	-2.674E-02	 1.704E+00	 0.000E+00
    0.0800	 1.188E+01	 0.000E+00	 1.670E+00	 3.020E+00	 1.778E+00	 3.430E+00	 1.893E+02	 0.000E+00	 0.000E+00	 0.000E+00	-2.753E-02	 1.710E+00	 0.000E+00
    0.0810	 1.188E+01	 0.000E+00	 1.670E+00	 3.009E+00	 1.816E+00	 3.433E+00	 1.893E+02	 0.000E+00	 0.000E+00	 0.000E+00	-2.836E-02	 1.714E+00	 0.000E+00
    0.0820	 1.188E+01	 0.000E+00	 1.670E+00	 2.999E+00	 1.855E+00	 3.437E+00	 1.894E+02	 0.000E+00	 0.000E+00	 0.000E+00	-2.923E-02	 1.716E+00	 0.000E+00
    0.0830	 1.188E+01	 0.000E+00	 1.670E+00	 2.989E+00	 1.893E+00	 3.441E+00	 1.894E+02	 0.000E+00	 0.000E+00	 0.000E+00	-3.013E-02	 1.716E+00	 0.000E+00
    0.0840	 1.188E+01	 0.000E+00	 1.670E+00	 2.979E+00	 1.931E+00	 3.444E+00	 1.894E+02	 0.000E+00	 0.000E+00	 0.000E+00	-3.107E-02	 1.714E+00	 0.000E+00
    0.0850	 1.188E+01	 0.000E+00	 1.670E+00	 2.969E+00	 1.969E+00	 3.447E+00	 1.895E+02	 0.000E+00	 0.000E+00	 0.000E+00	-3.204E-02	 1.710E+00	 0.000E+00
    0.0860	 1.188E+01	 0.000E+00	 1.670E+00	 2.958E+00	 2.006E+00	 3.450E+00	 1.895E+02	 0.000E+00	 0.000E+00	 0.000E+00	-3.304E-02	 1.705E+00	 0.000E+00
    0.0870	 1.188E+01	 0.000E+00	 1.670E+00	 2.948E+00	 2.044E+00	 3.453E+00	 1.896E+02	 0.000E+00	 0.000E+00	 0.000E+00	-3.407E-02	 1.699E+00	 0.000E+00
    0.0880	 1.188E+01	 0.000E+00	 1.670E+00	 2.938E+00	 2.080E+00	 3.456E+00	 1.896E+02	 0.000E+00	 0.000E+00	 0.000E+00	-3.513E-02	 1.691E+00	 0.000E+00
    0.0890	 1.188E+01	 0.000E+00	 1.670E+00	 2.928E+00	 2.117E+00	 3.459E+00	 1.896E+02	 0.000E+00	 0.000E+00	 0.000E+00	-3.621E-02	 1.684E+00	 0.000E+00
    0.0900	 1.188E+01	 0.000E+00	 1.670E+00	 2.917E+00	 2.153E+00	 3.461E+00	 1.897E+02	 0.000E+00	 0.000E+00	 0.000E+00	-3.731E-02	 1.675E+00	 0.000E+00
    0.0910	 1.188E+01	 0.000E+00	 1.670E+00	 2.906E+00	 2.189E+00	 3.463E+00	 1.897E+02	 0.000E+00	 0.000E+00	 0.000E+00	-3.843E-02	 1.667E+00	 0.000E+00
    0.0920	 1.188E+01	 0.000E+00	 1.670E+00	 2.894E+00	 2.224E+00	 3.465E+00	 1.898E+02	 0.000E+00	 0.000E+00	 0.000E+00	-3.957E-02	 1.659E+00	 0.000E+00
    0.0930	 1.188E+01	 0.000E+00	 1.670E+00	 2.881E+00	 2.259E+00	 3.467E+00	 1.898E+02	 0.000E+00	 0.000E+00	 0.000E+00	-4.072E-02	 1.651E+00	 0.000E+00
    0.0940	 1.188E+01	 0.000E+00	 1.670E+00	 2.867E+00	 2.293E+00	 3.469E+00	 1.898E+02	 0.000E+00	 0.000E+00	 0.000E+00	-4.189E-02	 1.643E+00	 0.000E+00
    0.0950	 1.188E+01	 0.000E+00	 1.670E+00	 2.852E+00	 2.326E+00	 3.471E+00	 1.899E+02	 0.000E+00	 0.000E+00	 0.000E+00	-4.307E-02	 1.637E+00	 0.000E+00
    0.0960	 1.188E+01	 0.000E+00	 1.670E+00	 2.836E+00	 2.359E+00	 3.473E+00	 1.899E+02	 0.000E+00	 0.000E+00	 0.000E+00	-4.425E-02	 1.631E+00	 0.000E+00
    0.0970	 1.188E+01	 0.000E+00	 1.670E+00	 2.819E+00	 2.391E+00	 3.474E+00	 1.900E+02	 0.000E+00	 0.000E+00	 0.000E+00	-4.544E-02	 1.626E+00	 0.000E+00
    0.0980	 1.188E+01	 0.000E+00	 1.670E+00	 2.801E+00	 2.423E+00	 3.475E+00	 1.900E+02	 0.000E+00	 0.000E+00	 0.000E+00	-4.664E-02	 1.623E+00	 0.000E+00
    0.0990	 1.188E+01	 0.000E+00	 1.670E+00	 2.782E+00	 2.454E+00	 3.476E+00	 1.901E+02	 0.000E+00	 0.000E+00	 0.000E+00	-4.784E-02	 1.620E+00	 0.000E+00
    0.1000	 1.188E+01	 0.000E+00	 1.670E+00	 2.762E+00	 2.484E+00	 3.477E+00	 1.901E+02	 0.000E+00	 0.000E+00	 0.000E+00	-4.905E-02	 1.620E+00	 0.000E+00
    0.1010	 1.188E+01	 0.000E+00	 1.670E+00	 2.741E+00	 2.513E+00	 3.478E+00	 1.901E+02	 0.000E+00	 0.000E+00	 0.000E+00	-5.025E-02	 1.620E+00	 0.000E+00
    0.1020	 1.188E+01	 0.000E+00	 1.670E+00	 2.719E+00	 2.542E+00	 3.478E+00	 1.902E+02	 0.000E+00	 0.000E+00	 0.000E+00	-5.146E-02	 1.622E+00	 0.000E+00
    0.1030	 1.188E+01	 0.000E+00	 1.670E+00	 2.697E+00	 2.570E+00	 3.479E+00	 1.902E+02	 0.000E+00	 0.000E+00	 0.000E+00	-5.267E-02	 1.626E+00	 0.000E+00
    0.1040	 1.188E+01	 0.000E+00	 1.670E+00	 2.673E+00	 2.597E+00	 3.479E+00	 1.903E+02	 0.000E+00	 0.000E+00	 0.000E+00	-5.388E-02	 1.631E+00	 0.000E+00
    0.1050	 1.188E+01	 0.000E+00	 1.670E+00	 2.648E+00	 2.623E+00	 3.479E+00	 1.903E+02	 0.000E+00	 0.000E+00	 0.000E+00	-5.509E-02	 1.637E+00	 0.000E+00
    0.1060	 1.188E+01	 0.000E+00	 1.670E+00	 2.623E+00	 2.648E+00	 3.479E+00	 1.903E+02	 0.000E+00	 0.000E+00	 0.000E+00	-5.631E-02	 1.645E+00	 0.000E+00
    0.1070	 1.188E+01	 0.000E+00	 1.670E+00	 2.597E+00	 2.673E+00	 3.479E+00	 1.904E+02	 0.000E+00	 0.000E+00	 0.000E+00	-5.753E-02	 1.653E+00	 0.000E+00
    0.1080	 1.188E+01	 0.000E+00	 1.670E+00	 2.570E+00	 2.697E+00	 3.479E+00	 1.904E+02	 0.000E+00	 0.000E+00	 0.000E+00	-5.875E-02	 1.663E+00	 0.000E+00
    0.1090	 1.188E+01	 0.000E+00	 1.670E+00	 2.542E+00	 2.719E+00	 3.478E+00	 1.905E+02	 0.000E+00	 0.000E+00	 0.000E+00	-5.998E-02	 1.674E+00	 0.000E+00
    0.1100	 1.188E+01	 0.000E+00	 1.670E+00	 2.513E+00	 2.741E+00	 3.478E+00	 1.905E+02	 0.000E+00	 0.000E+00	 0.000E+00	-6.121E-02	 1.685E+00	 0.000E+00
    0.1110	 1.188E+01	 0.000E+00	 1.670E+00	 2.483E+00	 2.762E+00	 3.477E+00	 1.905E+02	 0.000E+00	 0.000E+00	 0.000E+00	-6.246E-02	 1.697E+00	 0.000E+00
    0.1120	 1.188E+01	 0.000E+00	 1.670E+00	 2.453E+00	 2.782E+00	 3.476E+00	 1.906E+02	 0.000E+00	 0.000E+00	 0.000E+00	-6.371E-02	 1.709E+00	 0.000E+00
    0.1130	 1.188E+01	 0.000E+00	 1.670E+00	 2.422E+00	 2.801E+00	 3.475E+00	 1.906E+02	 0.000E+00	 0.000E+00	 0.000E+00	-6.497E-02	 1.721E+00	 0.000E+00
    0.1140	 1.188E+01	 0.000E+00	 1.670E+00	 2.390E+00	 2.819E+00	 3.474E+00	 1.906E+02	 0.000E+00	 0.000E+00	 0.000E+00	-6.625E-02	 1.733E+00	 0.000E+00
    0.1150	 1.188E+01	 0.000E+00	 1.670E+00	 2.358E+00	 2.836E+00	 3.472E+00	 1.907E+02	 0.000E+00	 0.000E+00	 0.000E+00	-6.754E-02	 1.744E+00	 0.000E+00
    0.1160	 1.188E+01	 0.000E+00	 1.670E+00	 2.325E+00	 2.852E+00	 3.470E+00	 1.907E+02	 0.000E+00	 0.000E+00	 0.000E+00	-6.885E-02	 1.755E+00	 0.000E+00
    0.1170	 1.188E+01	 0.000E+00	 1.670E+00	 2.291E+00	 2.867E+00	 3.469E+00	 1.908E+02	 0.000E+00	 0.000E+00	 0.000E+00	-7.017E-02	 1.765E+00	 0.000E+00
    0.1180	 1.188E+01	 0.000E+00	 1.670E+00	 2.257E+00	 2.881E+00	 3.467E+00	 1.908E+02	 0.000E+00	 0.000E+00	 0.000E+00	-7.151E-02	 1.775E+00	 0.000E+00
    0.1190	 1.188E+01	 0.000E+00	 1.670E+00	 2.222E+00	 2.894E+00	 3.465E+00	 1.908E+02	 0.000E+00	 0.000E+00	 0.000E+00	-7.287E-02	 1.782E+00	 0.000E+00
    0.1200	 1.188E+01	 0.000E+00	 1.670E+00	 2.187E+00	 2.906E+00	 3.463E+00	 1.909E+02	 0.000E+00	 0.000E+00	 0.000E+00	-7.424E-02	 1.789E+00	 0.000E+00
    0.1210	 1.188E+01	 0.000E+00	 1.670E+00	 2.151E+00	 2.917E+00	 3.460E+00	 1.909E+02	 0.000E+00	 0.000E+00	 0.000E+00	-7.564E-02	 1.794E+00	 0.000E+00
    0.1220	 1.188E+01	 0.000E+00	 1.670E+00	 2.114E+00	 2.927E+00	 3.458E+00	 1.909E+02	 0.000E+00	 0.000E+00	 0.000E+00	-7.706E-02	 1.797E+00	 0.000E+00
    0.1230	 1.188E+01	 0.000E+00	 1.670E+00	 2.077E+00	 2.938E+00	 3.455E+00	 1.910E+02	 0.000E+00	 0.000E+00	 0.000E+00	-7.849E-02	 1.798E+00	 0.000E+00
    0.1240	 1.188E+01	 0.000E+00	 1.670E+00	 2.040E+00	 2.948E+00	 3.452E+00	 1.910E+02	 0.000E+00	 0.000E+00	 0.000E+00	-7.995E-02	 1.798E+00	 0.000E+00
    0.1250	 1.188E+01	 0.000E+00	 1.670E+00	 2.002E+00	 2.958E+00	 3.449E+00	 1.910E+02	 0.000E+00	 0.000E+00	 0.000E+00	-8.142E-02	 1.795E+00	 0.000E+00
    0.1260	 1.188E+01	 0.000E+00	 1.670E+00	 1.964E+00	 2.968E+00	 3.446E+00	 1.911E+02	 0.000E+00	 0.000E+00	 0.000E+00	-8.292E-02	 1.790E+00	 0.000E+00
    0.1270	 1.188E+01	 0.000E+00	 1.670E+00	 1.926E+00	 2.978E+00	 3.442E+00	 1.911E+02	 0.000E+00	 0.000E+00	 0.000E+00	-8.443E-02	 1.783E+00	 0.000E+00
    0.1280	 1.188E+01	 0.000E+00	 1.670E+00	 1.887E+00	 2.989E+00	 3.439E+00	 1.911E+02	 0.000E+00	 0.000E+00	 0.000E+00	-8.596E-02	 1.774E+00	 0.000E+00
    0.1290	 1.188E+01	 0.000E+00	 1.670E+00	 1.849E+00	 2.999E+00	 3.435E+00	 1.912E+02	 0.000E+00	 0.000E+00	 0.000E+00	-8.751E-02	 1.763E+00	 0.000E+00
    0.1300	 1.188E+01	 0.000E+00	 1.670E+00	 1.810E+00	 3.009E+00	 3.431E+00	 1.912E+02	 0.000E+00	 0.000E+00	 0.000E+00	-8.907E-02	 1.750E+00	 0.000E+00
    0.1310	 1.188E+01	 0.000E+00	 1.670E+00	 1.771E+00	 3.019E+00	 3.427E+00	 1.912E+02	 0.000E+00	 0.000E+00	 0.000E+00	-9.064E-02	 1.735E+00	 0.000E+00
    0.1320	 1.188E+01	 0.000E+00	 1.670E+00	 1.732E+00	 3.029E+00	 3.423E+00	 1.912E+02	 0.000E+00	 0.000E+00	 0.000E+00	-9.222E-02	 1.718E+00	 0.000E+00
    0.1330	 1.188E+01	 0.000E+00	 1.670E+00	 1.693E+00	 3.039E+00	 3.419E+00	 1.913E+02	 0.000E+00	 0.000E+00	 0.000E+00	-9.381E-02	 1.699E+00	 0.000E+00
    0.1340	 1.188E+01	 0.000E+00	 1.670E+00	 1.654E+00	 3.049E+00	 3.415E+00	 1.913E+02	 0.000E+00	 0.000E+00	 0.000E+00	-9.541E-02	 1.679E+00	 0.000E+00
    0.1350	 1.188E+01	 0.000E+00	 1.670E+00	 1.616E+00	 3.059E+00	 3.410E+00	 1.913E+02	 0.000E+00	 0.000E+00	 0.000E+00	-9.702E-02	 1.657E+00	 0.000E+00
    0.1360	 1.188E+01	 0.000E+00	 1.670E+00	 1.577E+00	 3.069E+00	 3.405E+00	 1.914E+02	 0.000E+00	 0.000E+00	 0.000E+00	-9.863E-02	 1.634E+00	 0.000E+00
    0.1370	 1.188E+01	 0.000E+00	 1.670E+00	 1.539E+00	 3.079E+00	 3.401E+00	 1.914E+02	 0.000E+00	 0.000E+00	 0.000E+00	-1.002E-01	 1.610E+00	 0.000E+00
    0.1380	 1.188E+01	 0.000E+00	 1.670E+00	 1.502E+00	 3.089E+00	 3.396E+00	 1.914E+02	 0.000E+00	 0.000E+00	 0.000E+00	-1.019E-01	 1.584E+00	 0.000E+00
    0.1390	 1.188E+01	 0.000E+00	 1.670E+00	 1.465E+00	 3.099E+00	 3.390E+00	 1.914E+02	 0.000E+00	 0.000E+00	 0.000E+00	-1.035E-01	 1.559E+00	 0.000E+00
    0.1400	 1.188E+01	 0.000E+00	 1.670E+00	 1.429E+00	 3.108E+00	 3.385E+00	 1.915E+02	 0.000E+00	 0.000E+00	 0.000E+00	-1.051E-01	 1.533E+00	 0.000E+00
    0.1410	 1.188E+01	 0.000E+00	 1.670E+00	 1.393E+00	 3.118E+00	 3.380E+00	 1.915E+02	 0.000E+00	 0.000E+00	 0.000E+00	-1.067E-01	 1.506E+00	 0.000E+00
    0.1420	 1.188E+01	 0.000E+00	 1.670E+00	 1.359E+00	 3.128E+00	 3.374E+00	 1.915E+02	 0.000E+00	 0.000E+00	 0.000E+00	-1.083E-01	 1.480E+00	 0.000E+00
    0.1430	 1.188E+01	 0.000E+00	 1.670E+00	 1.325E+00	 3.137E+00	 3.368E+00	 1.915E+02	 0.000E+00	 0.000E+00	 0.000E+00	-1.098E-01	 1.453E+00	 0.000E+00
    0.1440	 1.188E+01	 0.000E+00	 1.670E+00	 1.293E+00	 3.147E+00	 3.363E+00	 1.916E+02	 0.000E+00	 0.000E+00	 0.000E+00	-1.114E-01	 1.427E+00	 0.000E+00
    0.1450	 1.188E+01	 0.000E+00	 1.670E+00	 1.262E+00	 3.156E+00	 3.357E+00	 1.916E+02	 0.000E+00	 0.000E+00	 0.000E+00	-1.130E-01	 1.402E+00	 0.000E+00
    0.1460	 1.188E+01	 0.000E+00	 1.670E+00	 1.232E+00	 3.165E+00	 3.350E+00	 1.916E+02	 0.000E+00	 0.000E+00	 0.000E+00	-1.146E-01	 1.377E+00	 0.000E+00
    0.1470	 1.188E+01	 0.000E+00	 1.670E+00	 1.204E+00	 3.175E+00	 3.344E+00	 1.916E+02	 0.000E+00	 0.000E+00	 0.000E+00	-1.161E-01	 1.354E+00	 0.000E+00
    0.1480	 1.188E+01	 0.000E+00	 1.670E+00	 1.178E+00	 3.184E+00	 3.338E+00	 1.917E+02	 0.000E+00	 0.000E+00	 0.000E+00	-1.177E-01	 1.331E+00	 0.000E+00
    0.1490	 1.188E+01	 0.000E+00	 1.670E+00	 1.154E+00	 3.193E+00	 3.331E+00	 1.917E+02	 0.000E+00	 0.000E+00	 0.000E+00	-1.192E-01	 1.309E+00	 0.000E+00
    0.1500	 1.188E+01	 0.000E+00	 1.670E+00	 1.132E+00	 3.202E+00	 3.325E+00	 1.917E+02	 0.000E+00	 0.000E+00	 0.000E+00	-1.207E-01	 1.289E+00	 0.000E+00
    0.1510	 1.188E+01	 0.000E+00	 1.670E+00	 1.112E+00	 3.211E+00	 3.318E+00	 1.917E+02	 0.000E+00	 0.000E+00	 0.000E+00	-1.222E-01	 1.270E+00	 0.000E+00
    0.1520	 1.188E+01	 0.000E+00	 1.670E+00	 1.095E+00	 3.220E+00	 3.311E+00	 1.917E+02	 0.000E+00	 0.000E+00	 0.000E+00	-1.237E-01	 1.253E+00	 0.000E+00
    0.1530	 1.188E+01	 0.000E+00	 1.670E+00	 1.081E+00	 3.229E+00	 3.304E+00	 1.918E+02	 0.000E+00	 0.000E+00	 0.000E+00	-1.252E-01	 1.237E+00	 0.000E+00
    0.1540	 1.188E+01	 0.000E+00	 1.670E+00	 1.069E+00	 3.238E+00	 3.297E+00	 1.918E+02	 0.000E+00	 0.000E+00	 0.000E+00	-1.267E-01	 1.223E+00	 0.000E+00
    0.1550	 1.188E+01	 0.000E+00	 1.670E+00	 1.060E+00	 3.246E+00	 3.290E+00	 1.918E+02	 0.000E+00	 0.000E+00	 0.000E+00	-1.282E-01	 1.210E+00	 0.000E+00
    0.1560	 1.188E+01	 0.000E+00	 1.670E+00	 1.054E+00	 3.255E+00	 3.283E+00	 1.918E+02	 0.000E+00	 0.000E+00	 0.000E+00	-1.297E-01	 1.198E+00	 0.000E+00
    0.1570	 1.188E+01	 0.000E+00	 1.670E+00	 1.051E+00	 3.263E+00	 3.275E+00	 1.918E+02	 0.000E+00	 0.000E+00	 0.000E+00	-1.312E-01	 1.188E+00	 0.000E+00
    0.1580	 1.188E+01	 0.000E+00	 1.670E+00	 1.051E+00	 3.271E+00	 3.268E+00	 1.919E+02	 0.000E+00	 0.000E+00	 0.000E+00	-1.326E-01	 1.179E+00	 0.000E+00
    0.1590	 1.188E+01	 0.000E+00	 1.670E+00	 1.055E+00	 3.280E+00	 3.260E+00	 1.919E+02	 0.000E+00	 0.000E+00	 0.000E+00	-1.341E-01	 1.171E+00	 0.000E+00
    0.1600	 1.188E+01	 0.000E+00	 1.670E+00	 1.061E+00	 3.288E+00	 3.252E+00	 1.919E+02	 0.000E+00	 0.000E+00	 0.000E+00	-1.356E-01	 1.165E+00	 0.000E+00
    0.1610	 1.188E+01	 0.000E+00	 1.670E+00	 1.070E+00	 3.296E+00	 3.244E+00	 1.919E+02	 0.000E+00	 0.000E+00	 0.000E+00	-1.371E-01	 1.159E+00	 0.000E+00
    0.1620	 1.188E+01	 0.000E+00	 1.670E+00	 1.082E+00	 3.304E+00	 3.237E+00	 1.919E+02	 0.000E+00	 0.000E+00	 0.000E+00	-1.385E-01	 1.154E+00	 0.000E+00
    0.1630	 1.188E+01	 0.000E+00	 1.670E+00	 1.097E+00	 3.311E+00	 3.229E+00	 1.919E+02	 0.000E+00	 0.000E+00	 0.000E+00	-1.400E-01	 1.150E+00	 0.000E+00
    0.1640	 1.188E+01	 0.000E+00	 1.670E+00	 1.114E+00	 3.319E+00	 3.220E+00	 1.919E+02	 0.000E+00	 0.000E+00	 0.000E+00	-1.415E-01	 1.147E+00	 0.000E+00
    0.1650	 1.188E+01	 0.000E+00	 1.670E+00	 1.134E+00	 3.326E+00	 3.212E+00	 1.919E+02	 0.000E+00	 0.000E+00	 0.000E+00	-1.430E-01	 1.144E+00	 0.000E+00
    0.1660	 1.188E+01	 0.000E+00	 1.670E+00	 1.156E+00	 3.334E+00	 3.204E+00	 1.920E+02	 0.000E+00	 0.000E+00	 0.000E+00	-1.445E-01	 1.141E+00	 0.000E+00
    0.1670	 1.188E+01	 0.000E+00	 1.670E+00	 1.180E+00	 3.341E+00	 3.195E+00	 1.920E+02	 0.000E+00	 0.000E+00	 0.000E+00	-1.459E-01	 1.138E+00	 0.000E+00
    0.1680	 1.188E+01	 0.000E+00	 1.670E+00	 1.207E+00	 3.348E+00	 3.187E+00	 1.920E+02	 0.000E+00	 0.000E+00	 0.000E+00	-1.474E-01	 1.135E+00	 0.000E+00
    0.1690	 1.188E+01	 0.000E+00	 1.670E+00	 1.235E+00	 3.355E+00	 3.178E+00	 1.920E+02	 0.000E+00	 0.000E+00	 0.000E+00	-1.489E-01	 1.132E+00	 0.000E+00
    0.1700	 1.188E+01	 0.000E+00	 1.670E+00	 1.264E+00	 3.362E+00	 3.170E+00	 1.920E+02	 0.000E+00	 0.000E+00	 0.000E+00	-1.504E-01	 1.128E+00	 0.000E+00
    0.1710	 1.188E+01	 0.000E+00	 1.670E+00	 1.296E+00	 3.369E+00	 3.161E+00	 1.920E+02	 0.000E+00	 0.000E+00	 0.000E+00	-1.519E-01	 1.123E+00	 0.000E+00
    0.1720	 1.188E+01	 0.000E+00	 1.670E+00	 1.328E+00	 3.375E+00	 3.152E+00	 1.920E+02	 0.000E+00	 0.000E+00	 0.000E+00	-1.534E-01	 1.118E+00	 0.000E+00
    0.1730	 1.188E+01	 0.000E+00	 1.670E+00	 1.362E+00	 3.382E+00	 3.143E+00	 1.920E+02	 0.000E+00	 0.000E+00	 0.000E+00	-1.549E-01	 1.112E+00	 0.000E+00
    0.1740	 1.188E+01	 0.000E+00	 1.670E+00	 1.397E+00	 3.388E+00	 3.134E+00	 1.920E+02	 0.000E+00	 0.000E+00	 0.000E+00	-1.564E-01	 1.105E+00	 0.000E+00
    0.1750	 1.188E+01	 0.000E+00	 1.670E+00	 1.432E+00	 3.394E+00	 3.125E+00	 1.920E+02	 0.000E+00	 0.000E+00	 0.000E+00	-1.579E-01	 1.098E+00	 0.000E+00
    0.1760	 1.188E+01	 0.000E+00	 1.670E+00	 1.469E+00	 3.400E+00	 3.116E+00	 1.921E+02	 0.000E+00	 0.000E+00	 0.000E+00	-1.594E-01	 1.089E+00	 0.000E+00
    0.1770	 1.188E+01	 0.000E+00	 1.670E+00	 1.506E+00	 3.406E+00	 3.107E+00	 1.921E+02	 0.000E+00	 0.000E+00	 0.000E+00	-1.609E-01	 1.079E+00	 0.000E+00
    0.1780	 1.188E+01	 0.000E+00	 1.670E+00	 1.544E+00	 3.411E+00	 3.098E+00	 1.921E+02	 0.000E+00	 0.000E+00	 0.000E+00	-1.623E-01	 1.067E+00	 0.000E+00
    0.1790	 1.188E+01	 0.000E+00	 1.670E+00	 1.582E+00	 3.417E+00	 3.088E+00	 1.921E+02	 0.000E+00	 0.000E+00	 0.000E+00	-1.638E-01	 1.055E+00	 0.000E+00
    0.1800	 1.188E+01	 0.000E+00	 1.670E+00	 1.620E+00	 3.422E+00	 3.079E+00	 1.921E+02	 0.000E+00	 0.000E+00	 0.000E+00	-1.652E-01	 1.041E+00	 0.000E+00
    0.1810	 1.188E+01	 0.000E+00	 1.670E+00	 1.659E+00	 3.427E+00	 3.070E+00	 1.921E+02	 0.000E+00	 0.000E+00	 0.000E+00	-1.667E-01	 1.027E+00	 0.000E+00
    0.1820	 1.188E+01	 0.000E+00	 1.670E+00	 1.698E+00	 3.432E+00	 3.060E+00	 1.921E+02	 0.000E+00	 0.000E+00	 0.000E+00	-1.681E-01	 1.011E+00	 0.000E+00
    0.1830	 1.188E+01	 0.000E+00	 1.670E+00	 1.737E+00	 3.437E+00	 3.051E+00	 1.921E+02	 0.000E+00	 0.000E+00	 0.000E+00	-1.695E-01	 9.945E-01	 0.000E+00
    0.1840	 1.188E+01	 0.000E+00	 1.670E+00	 1.777E+00	 3.442E+00	 3.041E+00	 1.921E+02	 0.000E+00	 0.000E+00	 0.000E+00	-1.709E-01	 9.770E-01	 0.000E+00
    0.1850	 1.188E+01	 0.000E+00	 1.670E+00	 1.816E+00	 3.446E+00	 3.032E+00	 1.921E+02	 0.000E+00	 0.000E+00	 0.000E+00	-1.722E-01	 9.588E-01	 0.000E+00
    0.1860	 1.188E+01	 0.000E+00	 1.670E+00	 1.855E+00	 3.451E+00	 3.022E+00	 1.921E+02	 0.000E+00	 0.000E+00	 0.000E+00	-1.736E-01	 9.399E-01	 0.000E+00