
Predictions were generated on 04-Aug-2015 at 13:02:53 using FAST (v8.12.00a-bjj-prerelease, 1-Aug-2015), compiled as a 32-bit application using single precision
 linked with  NWTC Subroutine Library (v2.06.02a-bjj, 24-Jul-2015); ElastoDyn (v1.03.00a-bjj, 9-Jul-2015); InflowWind (v3.00.01a-adp, 27-Apr-2015); AeroDyn14 (v14.04.00a-bjj, 14-Apr-2015); ServoDyn (v1.02.02a-bjj, 11-May-2015)

Description from the FAST input file: FAST Certification Test #12: WindPACT 1.5 MW Baseline with many DOFs with VS and VP and ECD wind.

Time      	Wind1VelX 	Wind1VelY 	Wind1VelZ 	OoPDefl3  	IPDefl3   	TipALxb3  	TipALyb3  	Spn4ALxb1 	Spn4ALyb1 	BldPitch3 	RotAccel  	LSSGagA   	HSShftA   	RootFxb3  	RootFyb3  	RootMEdg3 	RootMFlp3 	LSShftFya 	LSShftFza 	YawBrFxp  	YawBrFyp  	TwrBsFxt  	TwrBsFyt  
(s)       	(m/s)     	(m/s)     	(m/s)     	(m)       	(m)       	(m/s^2)   	(m/s^2)   	(m/s^2)   	(m/s^2)   	(deg)     	(deg/s^2) 	(deg/s^2) 	(deg/s^2) 	(kN)      	(kN)      	(kN·m)    	(kN·m)    	(kN)      	(kN)      	(kN)      	(kN)      	(kN)      	(kN)      
    0.0000	 1.180E+01	 0.000E+00	 0.000E+00	 0.000E+00	 0.000E+00	 1.265E+00	 1.896E+01	 8.354E-01	-4.774E-02	 7.500E+00	-5.297E-01	 1.775E-04	 1.562E-02	 4.310E-01	 1.853E+01	-1.018E+02	 4.287E+00	 9.545E-02	-2.298E+02	 3.653E+01	-6.229E-02	-2.734E+01	 6.241E-02
    0.0050	 1.180E+01	 0.000E+00	 0.000E+00	 1.597E-03	 7.718E-05	 1.260E+02	 1.078E+01	 1.949E+01	-8.939E-01	 7.500E+00	-8.304E+00	-6.962E+01	-6.124E+03	 8.371E+00	 1.274E+01	-5.882E+01	 6.312E+01	 4.578E-01	-2.323E+02	 3.797E+01	 9.309E+00	-2.564E+01	-6.845E+00
    0.0100	 1.180E+01	 0.000E+00	 0.000E+00	 5.817E-03	-6.219E-05	 6.061E+01	 7.498E+00	 1.084E+01	 5.812E+00	 7.500E+00	-5.376E+01	-3.018E+01	-2.655E+03	 6.775E+00	 2.223E+00	 8.338E+00	 4.439E+01	 1.639E+00	-2.312E+02	 3.675E+01	 2.114E+01	-2.528E+01	-1.543E+01
    0.0150	 1.180E+01	 0.000E+00	 0.000E+00	 1.201E-02	-1.028E-03	 8.432E+01	-5.533E-01	 1.507E+01	 5.932E+00	 7.500E+00	-6.851E+01	-5.069E+00	-4.459E+02	 8.580E+00	-2.829E+00	 4.770E+01	 6.374E+01	 1.560E+00	-2.326E+02	 3.660E+01	 2.879E+01	-2.387E+01	-2.071E+01
    0.0200	 1.180E+01	 0.000E+00	 0.000E+00	 2.018E-02	-3.184E-03	 7.878E+01	 7.867E-01	 1.479E+01	 5.945E+00	 7.500E+00	-6.692E+01	-2.071E+00	-1.822E+02	 8.789E+00	-2.473E+00	 4.883E+01	 7.092E+01	-1.036E+00	-2.333E+02	 3.598E+01	 2.936E+01	-2.225E+01	-2.057E+01
    0.0250	 1.180E+01	 0.000E+00	 0.000E+00	 3.039E-02	-6.531E-03	 7.589E+01	 7.133E+00	 1.462E+01	 4.276E+00	 7.500E+00	-4.680E+01	-1.765E+01	-1.552E+03	 8.730E+00	 2.939E+00	 1.564E+01	 7.904E+01	-5.678E+00	-2.341E+02	 3.535E+01	 2.392E+01	-2.023E+01	-1.581E+01
    0.0300	 1.180E+01	 0.000E+00	 0.000E+00	 4.247E-02	-1.063E-02	 7.328E+01	 1.469E+01	 1.434E+01	 2.189E+00	 7.500E+00	-2.202E+01	-3.810E+01	-3.351E+03	 8.644E+00	 9.707E+00	-2.772E+01	 8.837E+01	-1.092E+01	-2.350E+02	 3.461E+01	 1.677E+01	-1.786E+01	-9.653E+00
    0.0350	 1.180E+01	 0.000E+00	 0.000E+00	 5.640E-02	-1.498E-02	 7.002E+01	 1.987E+01	 1.404E+01	 7.978E-01	 7.500E+00	-5.185E+00	-5.022E+01	-4.418E+03	 8.795E+00	 1.437E+01	-5.794E+01	 9.958E+01	-1.532E+01	-2.360E+02	 3.374E+01	 1.212E+01	-1.520E+01	-5.228E+00
    0.0400	 1.180E+01	 0.000E+00	 0.000E+00	 7.210E-02	-1.920E-02	 6.583E+01	 2.084E+01	 1.372E+01	 7.101E-01	 7.500E+00	-2.991E+00	-4.709E+01	-4.143E+03	 9.311E+00	 1.508E+01	-6.218E+01	 1.129E+02	-1.812E+01	-2.371E+02	 3.272E+01	 1.219E+01	-1.229E+01	-4.199E+00
    0.0450	 1.180E+01	 0.000E+00	 0.000E+00	 8.947E-02	-2.318E-02	 6.115E+01	 1.857E+01	 1.335E+01	 1.651E+00	 7.500E+00	-1.223E+01	-3.179E+01	-2.796E+03	 1.014E+01	 1.268E+01	-4.550E+01	 1.283E+02	-1.963E+01	-2.384E+02	 3.156E+01	 1.607E+01	-9.136E+00	-5.867E+00
    0.0500	 1.180E+01	 0.000E+00	 0.000E+00	 1.084E-01	-2.706E-02	 5.649E+01	 1.548E+01	 1.298E+01	 2.869E+00	 7.500E+00	-2.440E+01	-1.309E+01	-1.152E+03	 1.111E+01	 9.468E+00	-2.316E+01	 1.454E+02	-2.080E+01	-2.398E+02	 3.036E+01	 2.100E+01	-5.792E+00	-8.181E+00
    0.0550	 1.180E+01	 0.000E+00	 0.000E+00	 1.288E-01	-3.103E-02	 5.200E+01	 1.407E+01	 1.253E+01	 3.567E+00	 7.500E+00	-3.058E+01	-2.946E-01	-2.591E+01	 1.200E+01	 7.887E+00	-1.171E+01	 1.632E+02	-2.265E+01	-2.413E+02	 2.909E+01	 2.402E+01	-2.225E+00	-8.949E+00
    0.0600	 1.180E+01	 0.000E+00	 0.000E+00	 1.504E-01	-3.521E-02	 4.880E+01	 1.537E+01	 1.207E+01	 3.388E+00	 7.500E+00	-2.690E+01	 2.378E+00	 2.092E+02	 1.280E+01	 9.016E+00	-1.887E+01	 1.822E+02	-2.562E+01	-2.428E+02	 2.786E+01	 2.379E+01	 1.502E+00	-7.167E+00
    0.0650	 1.180E+01	 0.000E+00	 0.000E+00	 1.733E-01	-3.952E-02	 4.613E+01	 1.873E+01	 1.156E+01	 2.515E+00	 7.500E+00	-1.551E+01	-3.084E+00	-2.713E+02	 1.351E+01	 1.231E+01	-4.144E+01	 2.021E+02	-2.952E+01	-2.442E+02	 2.663E+01	 2.090E+01	 5.369E+00	-3.298E+00
    0.0700	 1.180E+01	 0.000E+00	 0.000E+00	 1.974E-01	-4.373E-02	 4.376E+01	 2.242E+01	 1.103E+01	 1.477E+00	 7.500E+00	-2.432E+00	-1.060E+01	-9.321E+02	 1.426E+01	 1.613E+01	-6.881E+01	 2.232E+02	-3.368E+01	-2.456E+02	 2.542E+01	 1.727E+01	 9.318E+00	 1.216E+00
    0.0750	 1.180E+01	 0.000E+00	 0.000E+00	 2.226E-01	-4.757E-02	 4.120E+01	 2.477E+01	 1.048E+01	 8.049E-01	 7.500E+00	 6.382E+00	-1.405E+01	-1.236E+03	 1.516E+01	 1.887E+01	-9.010E+01	 2.456E+02	-3.745E+01	-2.471E+02	 2.420E+01	 1.485E+01	 1.330E+01	 4.915E+00
    0.0800	 1.180E+01	 0.000E+00	 0.000E+00	 2.488E-01	-5.084E-02	 3.824E+01	 2.507E+01	 9.919E+00	 7.282E-01	 7.500E+00	 8.392E+00	-1.078E+01	-9.486E+02	 1.626E+01	 1.983E+01	-1.004E+02	 2.695E+02	-4.052E+01	-2.486E+02	 2.299E+01	 1.450E+01	 1.727E+01	 7.145E+00
    0.0850	 1.180E+01	 0.000E+00	 0.000E+00	 2.761E-01	-5.350E-02	 3.516E+01	 2.379E+01	 9.346E+00	 1.120E+00	 7.500E+00	 5.083E+00	-2.276E+00	-2.002E+02	 1.753E+01	 1.939E+01	-1.020E+02	 2.948E+02	-4.306E+01	-2.503E+02	 2.180E+01	 1.578E+01	 2.119E+01	 8.226E+00
    0.0900	 1.180E+01	 0.000E+00	 0.000E+00	 3.042E-01	-5.557E-02	 3.221E+01	 2.208E+01	 8.760E+00	 1.611E+00	 7.500E+00	 6.076E-01	 7.185E+00	 6.320E+02	 1.887E+01	 1.867E+01	-1.025E+02	 3.210E+02	-4.552E+01	-2.520E+02	 2.068E+01	 1.735E+01	 2.503E+01	 9.148E+00
    0.0950	 1.180E+01	 0.000E+00	 0.000E+00	 3.331E-01	-5.716E-02	 2.964E+01	 2.104E+01	 8.160E+00	 1.859E+00	 7.500E+00	-1.195E+00	 1.358E+01	 1.194E+03	 2.021E+01	 1.873E+01	-1.088E+02	 3.479E+02	-4.832E+01	-2.536E+02	 1.964E+01	 1.795E+01	 2.877E+01	 1.084E+01
    0.1000	 1.180E+01	 0.000E+00	 0.000E+00	 3.627E-01	-5.831E-02	 2.754E+01	 2.112E+01	 7.552E+00	 1.707E+00	 7.500E+00	 1.367E+00	 1.504E+01	 1.323E+03	 2.150E+01	 2.002E+01	-1.244E+02	 3.754E+02	-5.166E+01	-2.551E+02	 1.871E+01	 1.698E+01	 3.237E+01	 1.373E+01
    0.1050	 1.180E+01	 0.000E+00	 0.000E+00	 3.931E-01	-5.898E-02	 2.579E+01	 2.195E+01	 6.945E+00	 1.261E+00	 7.500E+00	 7.066E+00	 1.275E+01	 1.122E+03	 2.277E+01	 2.224E+01	-1.473E+02	 4.033E+02	-5.541E+01	-2.565E+02	 1.791E+01	 1.481E+01	 3.580E+01	 1.754E+01
    0.1100	 1.180E+01	 0.000E+00	 0.000E+00	 4.240E-01	-5.907E-02	 2.417E+01	 2.275E+01	 6.345E+00	 7.621E-01	 7.500E+00	 1.315E+01	 9.490E+00	 8.348E+02	 2.406E+01	 2.464E+01	-1.726E+02	 4.318E+02	-5.927E+01	-2.577E+02	 1.722E+01	 1.231E+01	 3.901E+01	 2.157E+01
    0.1150	 1.180E+01	 0.000E+00	 0.000E+00	 4.556E-01	-5.850E-02	 2.249E+01	 2.277E+01	 5.757E+00	 4.514E-01	 7.500E+00	 1.693E+01	 8.031E+00	 7.065E+02	 2.542E+01	 2.648E+01	-1.952E+02	 4.609E+02	-6.293E+01	-2.590E+02	 1.665E+01	 1.039E+01	 4.198E+01	 2.515E+01
    0.1200	 1.180E+01	 0.000E+00	 0.000E+00	 4.876E-01	-5.720E-02	 2.069E+01	 2.176E+01	 5.185E+00	 4.204E-01	 7.500E+00	 1.741E+01	 9.454E+00	 8.316E+02	 2.686E+01	 2.749E+01	-2.133E+02	 4.903E+02	-6.628E+01	-2.602E+02	 1.621E+01	 9.398E+00	 4.467E+01	 2.799E+01
    0.1250	 1.180E+01	 0.000E+00	 0.000E+00	 5.201E-01	-5.518E-02	 1.881E+01	 1.994E+01	 4.631E+00	 6.011E-01	 7.500E+00	 1.538E+01	 1.298E+01	 1.142E+03	 2.837E+01	 2.787E+01	-2.279E+02	 5.201E+02	-6.940E+01	-2.614E+02	 1.591E+01	 9.112E+00	 4.705E+01	 3.026E+01
    0.1300	 1.180E+01	 0.000E+00	 0.000E+00	 5.531E-01	-5.250E-02	 1.699E+01	 1.788E+01	 4.096E+00	 8.227E-01	 7.500E+00	 1.276E+01	 1.664E+01	 1.464E+03	 2.988E+01	 2.813E+01	-2.424E+02	 5.500E+02	-7.247E+01	-2.625E+02	 1.577E+01	 8.921E+00	 4.912E+01	 3.239E+01
    0.1350	 1.180E+01	 0.000E+00	 0.000E+00	 5.864E-01	-4.925E-02	 1.533E+01	 1.607E+01	 3.582E+00	 9.294E-01	 7.500E+00	 1.132E+01	 1.863E+01	 1.638E+03	 3.137E+01	 2.875E+01	-2.599E+02	 5.799E+02	-7.569E+01	-2.635E+02	 1.579E+01	 8.262E+00	 5.085E+01	 3.478E+01
    0.1400	 1.180E+01	 0.000E+00	 0.000E+00	 6.199E-01	-4.549E-02	 1.386E+01	 1.471E+01	 3.091E+00	 8.594E-01	 7.500E+00	 1.172E+01	 1.823E+01	 1.603E+03	 3.280E+01	 2.991E+01	-2.818E+02	 6.095E+02	-7.912E+01	-2.643E+02	 1.599E+01	 6.913E+00	 5.223E+01	 3.757E+01
    0.1450	 1.180E+01	 0.000E+00	 0.000E+00	 6.537E-01	-4.125E-02	 1.252E+01	 1.363E+01	 2.627E+00	 6.637E-01	 7.500E+00	 1.338E+01	 1.604E+01	 1.411E+03	 3.420E+01	 3.145E+01	-3.069E+02	 6.387E+02	-8.269E+01	-2.649E+02	 1.637E+01	 5.066E+00	 5.325E+01	 4.062E+01
    0.1500	 1.180E+01	 0.000E+00	 0.000E+00	 6.877E-01	-3.655E-02	 1.120E+01	 1.247E+01	 2.193E+00	 4.577E-01	 7.500E+00	 1.501E+01	 1.341E+01	 1.179E+03	 3.557E+01	 3.301E+01	-3.328E+02	 6.677E+02	-8.626E+01	-2.654E+02	 1.692E+01	 3.154E+00	 5.389E+01	 4.357E+01
    0.1550	 1.180E+01	 0.000E+00	 0.000E+00	 7.218E-01	-3.140E-02	 9.814E+00	 1.093E+01	 1.791E+00	 3.448E-01	 7.500E+00	 1.545E+01	 1.156E+01	 1.017E+03	 3.693E+01	 3.429E+01	-3.573E+02	 6.963E+02	-8.970E+01	-2.658E+02	 1.765E+01	 1.577E+00	 5.415E+01	 4.612E+01
    0.1600	 1.180E+01	 0.000E+00	 0.000E+00	 7.560E-01	-2.583E-02	 8.334E+00	 8.903E+00	 1.421E+00	 3.640E-01	 7.500E+00	 1.431E+01	 1.098E+01	 9.658E+02	 3.830E+01	 3.516E+01	-3.793E+02	 7.244E+02	-9.294E+01	-2.661E+02	 1.854E+01	 5.003E-01	 5.403E+01	 4.812E+01
    0.1650	 1.180E+01	 0.000E+00	 0.000E+00	 7.903E-01	-1.989E-02	 6.792E+00	 6.541E+00	 1.084E+00	 4.769E-01	 7.500E+00	 1.203E+01	 1.125E+01	 9.899E+02	 3.964E+01	 3.573E+01	-3.996E+02	 7.519E+02	-9.602E+01	-2.663E+02	 1.960E+01	-1.942E-01	 5.353E+01	 4.966E+01
    0.1700	 1.180E+01	 0.000E+00	 0.000E+00	 8.245E-01	-1.369E-02	 5.246E+00	 4.110E+00	 7.766E-01	 6.053E-01	 7.500E+00	 9.509E+00	 1.151E+01	 1.012E+03	 4.095E+01	 3.623E+01	-4.195E+02	 7.788E+02	-9.904E+01	-2.664E+02	 2.082E+01	-7.741E-01	 5.265E+01	 5.092E+01
    0.1750	 1.180E+01	 0.000E+00	 0.000E+00	 8.586E-01	-7.321E-03	 3.748E+00	 1.847E+00	 4.995E-01	 6.779E-01	 7.500E+00	 7.562E+00	 1.095E+01	 9.629E+02	 4.220E+01	 3.689E+01	-4.403E+02	 8.050E+02	-1.021E+02	-2.663E+02	 2.221E+01	-1.487E+00	 5.141E+01	 5.208E+01
    0.1800	 1.180E+01	 0.000E+00	 0.000E+00	 8.926E-01	-8.577E-04	 2.310E+00	-1.626E-01	 2.519E-01	 6.704E-01	 7.500E+00	 6.464E+00	 9.311E+00	 8.191E+02	 4.338E+01	 3.777E+01	-4.625E+02	 8.302E+02	-1.051E+02	-2.660E+02	 2.377E+01	-2.410E+00	 4.982E+01	 5.317E+01
    0.1850	 1.180E+01	 0.000E+00	 0.000E+00	 9.264E-01	 5.626E-03	 9.067E-01	-1.987E+00	 3.323E-02	 6.076E-01	 7.500E+00	 5.940E+00	 6.919E+00	 6.086E+02	 4.450E+01	 3.879E+01	-4.855E+02	 8.546E+02	-1.081E+02	-2.656E+02	 2.547E+01	-3.443E+00	 4.789E+01	 5.413E+01
    0.1900	 1.180E+01	 0.000E+00	 0.000E+00	 9.600E-01	 1.207E-02	-5.033E-01	-3.781E+00	-1.573E-01	 5.430E-01	 7.500E+00	 5.403E+00	 4.418E+00	 3.886E+02	 4.556E+01	 3.978E+01	-5.081E+02	 8.781E+02	-1.111E+02	-2.651E+02	 2.732E+01	-4.376E+00	 4.565E+01	 5.479E+01
    0.1950	 1.180E+01	 0.000E+00	 0.000E+00	 9.932E-01	 1.843E-02	-1.953E+00	-5.670E+00	-3.211E-01	 5.218E-01	 7.500E+00	 4.363E+00	 2.367E+00	 2.082E+02	 4.658E+01	 4.062E+01	-5.292E+02	 9.007E+02	-1.139E+02	-2.645E+02	 2.930E+01	-5.031E+00	 4.312E+01	 5.500E+01
    0.2000	 1.180E+01	 0.000E+00	 0.000E+00	 1.026E+00	 2.464E-02	-3.445E+00	-7.681E+00	-4.601E-01	 5.590E-01	 7.500E+00	 2.673E+00	 9.725E-01	 8.555E+01	 4.755E+01	 4.124E+01	-5.484E+02	 9.224E+02	-1.166E+02	-2.638E+02	 3.139E+01	-5.337E+00	 4.031E+01	 5.473E+01
    0.2050	 1.180E+01	 0.000E+00	 0.000E+00	 1.059E+00	 3.063E-02	-4.958E+00	-9.735E+00	-5.770E-01	 6.348E-01	 7.500E+00	 5.747E-01	 4.018E-02	 3.535E+00	 4.848E+01	 4.171E+01	-5.660E+02	 9.431E+02	-1.191E+02	-2.629E+02	 3.359E+01	-5.355E+00	 3.726E+01	 5.400E+01
    0.2100	 1.180E+01	 0.000E+00	 0.000E+00	 1.091E+00	 3.632E-02	-6.455E+00	-1.170E+01	-6.743E-01	 7.125E-01	 7.500E+00	-1.505E+00	-8.274E-01	-7.278E+01	 4.935E+01	 4.213E+01	-5.825E+02	 9.628E+02	-1.215E+02	-2.620E+02	 3.589E+01	-5.211E+00	 3.399E+01	 5.292E+01
    0.2150	 1.180E+01	 0.000E+00	 0.000E+00	 1.122E+00	 4.164E-02	-7.906E+00	-1.347E+01	-7.541E-01	 7.603E-01	 7.500E+00	-3.199E+00	-1.971E+00	-1.734E+02	 5.015E+01	 4.261E+01	-5.985E+02	 9.815E+02	-1.239E+02	-2.610E+02	 3.827E+01	-5.015E+00	 3.055E+01	 5.158E+01
    0.2200	 1.180E+01	 0.000E+00	 0.000E+00	 1.153E+00	 4.652E-02	-9.298E+00	-1.500E+01	-8.189E-01	 7.682E-01	 7.500E+00	-4.390E+00	-3.484E+00	-3.065E+02	 5.089E+01	 4.316E+01	-6.142E+02	 9.992E+02	-1.262E+02	-2.598E+02	 4.073E+01	-4.801E+00	 2.695E+01	 5.000E+01
    0.2250	 1.180E+01	 0.000E+00	 0.000E+00	 1.183E+00	 5.091E-02	-1.064E+01	-1.632E+01	-8.704E-01	 7.491E-01	 7.500E+00	-5.215E+00	-5.198E+00	-4.572E+02	 5.157E+01	 4.376E+01	-6.292E+02	 1.016E+03	-1.285E+02	-2.586E+02	 4.324E+01	-4.524E+00	 2.324E+01	 4.815E+01
    0.2300	 1.180E+01	 0.000E+00	 0.000E+00	 1.213E+00	 5.477E-02	-1.193E+01	-1.751E+01	-9.106E-01	 7.269E-01	 7.500E+00	-5.936E+00	-6.814E+00	-5.994E+02	 5.220E+01	 4.431E+01	-6.430E+02	 1.032E+03	-1.306E+02	-2.573E+02	 4.580E+01	-4.094E+00	 1.946E+01	 4.599E+01
    0.2350	 1.180E+01	 0.000E+00	 0.000E+00	 1.242E+00	 5.806E-02	-1.319E+01	-1.862E+01	-9.415E-01	 7.222E-01	 7.500E+00	-6.773E+00	-8.078E+00	-7.106E+02	 5.278E+01	 4.477E+01	-6.551E+02	 1.047E+03	-1.327E+02	-2.559E+02	 4.838E+01	-3.438E+00	 1.562E+01	 4.348E+01
    0.2400	 1.180E+01	 0.000E+00	 0.000E+00	 1.270E+00	 6.075E-02	-1.441E+01	-1.966E+01	-9.652E-01	 7.403E-01	 7.500E+00	-7.776E+00	-8.911E+00	-7.839E+02	 5.331E+01	 4.510E+01	-6.653E+02	 1.060E+03	-1.346E+02	-2.544E+02	 5.097E+01	-2.539E+00	 1.179E+01	 4.060E+01
    0.2450	 1.180E+01	 0.000E+00	 0.000E+00	 1.297E+00	 6.280E-02	-1.557E+01	-2.060E+01	-9.837E-01	 7.716E-01	 7.500E+00	-8.828E+00	-9.411E+00	-8.279E+02	 5.380E+01	 4.535E+01	-6.738E+02	 1.073E+03	-1.364E+02	-2.529E+02	 5.356E+01	-1.435E+00	 7.974E+00	 3.740E+01
    0.2500	 1.180E+01	 0.000E+00	 0.000E+00	 1.324E+00	 6.420E-02	-1.665E+01	-2.137E+01	-9.988E-01	 7.991E-01	 7.500E+00	-9.736E+00	-9.767E+00	-8.592E+02	 5.425E+01	 4.557E+01	-6.809E+02	 1.086E+03	-1.382E+02	-2.514E+02	 5.614E+01	-1.985E-01	 4.230E+00	 3.397E+01
    0.2550	 1.180E+01	 0.000E+00	 0.000E+00	 1.349E+00	 6.490E-02	-1.770E+01	-2.194E+01	-1.012E+00	 8.092E-01	 7.500E+00	-1.034E+01	-1.013E+01	-8.913E+02	 5.465E+01	 4.578E+01	-6.869E+02	 1.097E+03	-1.399E+02	-2.498E+02	 5.869E+01	 1.112E+00	 5.857E-01	 3.035E+01
    0.2600	 1.180E+01	 0.000E+00	 0.000E+00	 1.374E+00	 6.490E-02	-1.861E+01	-2.229E+01	-1.025E+00	 7.981E-01	 7.500E+00	-1.061E+01	-1.055E+01	-9.281E+02	 5.501E+01	 4.601E+01	-6.917E+02	 1.107E+03	-1.415E+02	-2.481E+02	 6.120E+01	 2.469E+00	-2.921E+00	 2.660E+01
    0.2650	 1.180E+01	 0.000E+00	 0.000E+00	 1.398E+00	 6.419E-02	-1.942E+01	-2.245E+01	-1.035E+00	 7.719E-01	 7.500E+00	-1.061E+01	-1.094E+01	-9.627E+02	 5.533E+01	 4.623E+01	-6.954E+02	 1.117E+03	-1.431E+02	-2.464E+02	 6.366E+01	 3.882E+00	-6.260E+00	 2.271E+01
    0.2700	 1.180E+01	 0.000E+00	 0.000E+00	 1.420E+00	 6.278E-02	-2.011E+01	-2.246E+01	-1.046E+00	 7.426E-01	 7.500E+00	-1.048E+01	-1.119E+01	-9.840E+02	 5.562E+01	 4.641E+01	-6.976E+02	 1.126E+03	-1.447E+02	-2.446E+02	 6.605E+01	 5.380E+00	-9.396E+00	 1.870E+01
    0.2750	 1.180E+01	 0.000E+00	 0.000E+00	 1.442E+00	 6.067E-02	-2.071E+01	-2.235E+01	-1.059E+00	 7.195E-01	 7.500E+00	-1.032E+01	-1.117E+01	-9.828E+02	 5.589E+01	 4.652E+01	-6.983E+02	 1.135E+03	-1.462E+02	-2.429E+02	 6.836E+01	 6.979E+00	-1.230E+01	 1.458E+01
    0.2800	 1.180E+01	 0.000E+00	 0.000E+00	 1.463E+00	 5.788E-02	-2.119E+01	-2.213E+01	-1.074E+00	 7.049E-01	 7.500E+00	-1.015E+01	-1.088E+01	-9.574E+02	 5.612E+01	 4.656E+01	-6.973E+02	 1.142E+03	-1.476E+02	-2.411E+02	 7.058E+01	 8.673E+00	-1.494E+01	 1.037E+01
    0.2850	 1.180E+01	 0.000E+00	 0.000E+00	 1.482E+00	 5.443E-02	-2.157E+01	-2.179E+01	-1.091E+00	 6.945E-01	 7.500E+00	-9.941E+00	-1.038E+01	-9.132E+02	 5.634E+01	 4.653E+01	-6.949E+02	 1.150E+03	-1.490E+02	-2.392E+02	 7.270E+01	 1.043E+01	-1.730E+01	 6.128E+00
    0.2900	 1.180E+01	 0.000E+00	 0.000E+00	 1.501E+00	 5.034E-02	-2.182E+01	-2.131E+01	-1.110E+00	 6.808E-01	 7.500E+00	-9.604E+00	-9.762E+00	-8.587E+02	 5.654E+01	 4.647E+01	-6.912E+02	 1.156E+03	-1.504E+02	-2.374E+02	 7.472E+01	 1.220E+01	-1.935E+01	 1.905E+00
    0.2950	 1.180E+01	 0.000E+00	 0.000E+00	 1.519E+00	 4.563E-02	-2.194E+01	-2.070E+01	-1.130E+00	 6.582E-01	 7.500E+00	-9.085E+00	-9.108E+00	-8.012E+02	 5.671E+01	 4.638E+01	-6.863E+02	 1.162E+03	-1.518E+02	-2.355E+02	 7.663E+01	 1.394E+01	-2.106E+01	-2.241E+00
    0.3000	 1.180E+01	 0.000E+00	 0.000E+00	 1.535E+00	 4.034E-02	-2.197E+01	-1.994E+01	-1.152E+00	 6.257E-01	 7.500E+00	-8.383E+00	-8.446E+00	-7.430E+02	 5.686E+01	 4.628E+01	-6.804E+02	 1.168E+03	-1.533E+02	-2.335E+02	 7.841E+01	 1.563E+01	-2.242E+01	-6.269E+00
    0.3050	 1.180E+01	 0.000E+00	 0.000E+00	 1.550E+00	 3.450E-02	-2.191E+01	-1.907E+01	-1.176E+00	 5.870E-01	 7.500E+00	-7.545E+00	-7.753E+00	-6.820E+02	 5.700E+01	 4.615E+01	-6.735E+02	 1.173E+03	-1.547E+02	-2.316E+02	 8.007E+01	 1.726E+01	-2.342E+01	-1.015E+01
    0.3100	 1.180E+01	 0.000E+00	 0.000E+00	 1.565E+00	 2.815E-02	-2.165E+01	-1.812E+01	-1.190E+00	 5.468E-01	 7.500E+00	-6.641E+00	-6.982E+00	-6.142E+02	 5.713E+01	 4.597E+01	-6.655E+02	 1.178E+03	-1.561E+02	-2.296E+02	 8.160E+01	 1.884E+01	-2.403E+01	-1.387E+01
    0.3150	 1.180E+01	 0.000E+00	 0.000E+00	 1.578E+00	 2.134E-02	-2.131E+01	-1.709E+01	-1.201E+00	 5.104E-01	 7.500E+00	-5.730E+00	-6.099E+00	-5.365E+02	 5.724E+01	 4.574E+01	-6.564E+02	 1.182E+03	-1.576E+02	-2.276E+02	 8.300E+01	 2.036E+01	-2.426E+01	-1.739E+01
    0.3200	 1.180E+01	 0.000E+00	 0.000E+00	 1.590E+00	 1.412E-02	-2.086E+01	-1.602E+01	-1.217E+00	 4.794E-01	 7.500E+00	-4.829E+00	-5.107E+00	-4.493E+02	 5.735E+01	 4.546E+01	-6.463E+02	 1.186E+03	-1.591E+02	-2.255E+02	 8.426E+01	 2.181E+01	-2.409E+01	-2.069E+01
    0.3250	 1.180E+01	 0.000E+00	 0.000E+00	 1.601E+00	 6.525E-03	-2.030E+01	-1.490E+01	-1.227E+00	 4.514E-01	 7.500E+00	-3.933E+00	-4.046E+00	-3.559E+02	 5.745E+01	 4.513E+01	-6.352E+02	 1.190E+03	-1.606E+02	-2.235E+02	 8.539E+01	 2.315E+01	-2.352E+01	-2.374E+01
    0.3300	 1.180E+01	 0.000E+00	 0.000E+00	 1.612E+00	-1.389E-03	-1.964E+01	-1.373E+01	-1.232E+00	 4.235E-01	 7.500E+00	-3.013E+00	-2.971E+00	-2.614E+02	 5.754E+01	 4.475E+01	-6.233E+02	 1.193E+03	-1.622E+02	-2.213E+02	 8.639E+01	 2.438E+01	-2.254E+01	-2.649E+01
    0.3350	 1.180E+01	 0.000E+00	 0.000E+00	 1.621E+00	-9.578E-03	-1.887E+01	-1.252E+01	-1.232E+00	 3.934E-01	 7.500E+00	-2.053E+00	-1.927E+00	-1.695E+02	 5.762E+01	 4.435E+01	-6.108E+02	 1.196E+03	-1.638E+02	-2.192E+02	 8.726E+01	 2.545E+01	-2.117E+01	-2.891E+01
    0.3400	 1.180E+01	 0.000E+00	 0.000E+00	 1.629E+00	-1.799E-02	-1.802E+01	-1.127E+01	-1.225E+00	 3.612E-01	 7.500E+00	-1.064E+00	-9.337E-01	-8.213E+01	 5.769E+01	 4.391E+01	-5.977E+02	 1.198E+03	-1.655E+02	-2.170E+02	 8.799E+01	 2.636E+01	-1.940E+01	-3.097E+01
    0.3450	 1.180E+01	 0.000E+00	 0.000E+00	 1.636E+00	-2.658E-02	-1.710E+01	-1.001E+01	-1.208E+00	 3.280E-01	 7.500E+00	-6.650E-02	 1.385E-02	 1.219E+00	 5.776E+01	 4.345E+01	-5.840E+02	 1.201E+03	-1.672E+02	-2.148E+02	 8.860E+01	 2.710E+01	-1.724E+01	-3.267E+01
    0.3500	 1.180E+01	 0.000E+00	 0.000E+00	 1.642E+00	-3.530E-02	-1.606E+01	-8.749E+00	-1.182E+00	 2.969E-01	 7.500E+00	 8.976E-01	 9.315E-01	 8.194E+01	 5.782E+01	 4.294E+01	-5.699E+02	 1.203E+03	-1.690E+02	-2.125E+02	 8.910E+01	 2.767E+01	-1.471E+01	-3.399E+01
    0.3550	 1.180E+01	 0.000E+00	 0.000E+00	 1.648E+00	-4.410E-02	-1.490E+01	-7.503E+00	-1.145E+00	 2.700E-01	 7.500E+00	 1.796E+00	 1.831E+00	 1.611E+02	 5.787E+01	 4.240E+01	-5.552E+02	 1.204E+03	-1.708E+02	-2.101E+02	 8.948E+01	 2.807E+01	-1.182E+01	-3.493E+01
    0.3600	 1.180E+01	 0.000E+00	 0.000E+00	 1.652E+00	-5.294E-02	-1.374E+01	-6.280E+00	-1.092E+00	 2.482E-01	 7.500E+00	 2.614E+00	 2.705E+00	 2.380E+02	 5.792E+01	 4.181E+01	-5.402E+02	 1.205E+03	-1.727E+02	-2.077E+02	 8.975E+01	 2.829E+01	-8.589E+00	-3.547E+01
    0.3650	 1.180E+01	 0.000E+00	 0.000E+00	 1.656E+00	-6.177E-02	-1.254E+01	-5.087E+00	-1.034E+00	 2.304E-01	 7.500E+00	 3.359E+00	 3.534E+00	 3.109E+02	 5.795E+01	 4.118E+01	-5.248E+02	 1.206E+03	-1.747E+02	-2.053E+02	 8.993E+01	 2.833E+01	-5.027E+00	-3.561E+01
    0.3700	 1.180E+01	 0.000E+00	 0.000E+00	 1.658E+00	-7.055E-02	-1.131E+01	-3.925E+00	-9.642E-01	 2.153E-01	 7.500E+00	 4.041E+00	 4.290E+00	 3.773E+02	 5.797E+01	 4.052E+01	-5.092E+02	 1.207E+03	-1.767E+02	-2.028E+02	 9.002E+01	 2.817E+01	-1.158E+00	-3.534E+01
    0.3750	 1.180E+01	 0.000E+00	 0.000E+00	 1.660E+00	-7.925E-02	-1.005E+01	-2.798E+00	-8.778E-01	 2.014E-01	 7.500E+00	 4.666E+00	 4.952E+00	 4.356E+02	 5.798E+01	 3.983E+01	-4.935E+02	 1.207E+03	-1.788E+02	-2.003E+02	 9.003E+01	 2.782E+01	 2.992E+00	-3.467E+01
    0.3800	 1.180E+01	 0.000E+00	 0.000E+00	 1.662E+00	-8.782E-02	-8.786E+00	-1.710E+00	-7.766E-01	 1.885E-01	 7.500E+00	 5.233E+00	 5.513E+00	 4.850E+02	 5.797E+01	 3.912E+01	-4.777E+02	 1.207E+03	-1.809E+02	-1.976E+02	 8.997E+01	 2.726E+01	 7.399E+00	-3.359E+01
    0.3850	 1.180E+01	 0.000E+00	 0.000E+00	 1.662E+00	-9.625E-02	-7.512E+00	-6.678E-01	-6.604E-01	 1.774E-01	 7.500E+00	 5.730E+00	 5.979E+00	 5.259E+02	 5.795E+01	 3.838E+01	-4.619E+02	 1.207E+03	-1.831E+02	-1.950E+02	 8.986E+01	 2.652E+01	 1.204E+01	-3.212E+01
    0.3900	 1.180E+01	 0.000E+00	 0.000E+00	 1.662E+00	-1.045E-01	-6.244E+00	 3.200E-01	-5.286E-01	 1.695E-01	 7.500E+00	 6.139E+00	 6.360E+00	 5.594E+02	 5.791E+01	 3.762E+01	-4.460E+02	 1.206E+03	-1.853E+02	-1.922E+02	 8.970E+01	 2.560E+01	 1.688E+01	-3.028E+01
    0.3950	 1.180E+01	 0.000E+00	 0.000E+00	 1.661E+00	-1.125E-01	-4.989E+00	 1.249E+00	-3.830E-01	 1.654E-01	 7.500E+00	 6.452E+00	 6.664E+00	 5.862E+02	 5.786E+01	 3.683E+01	-4.302E+02	 1.205E+03	-1.875E+02	-1.895E+02	 8.950E+01	 2.450E+01	 2.190E+01	-2.809E+01
    0.4000	 1.180E+01	 0.000E+00	 0.000E+00	 1.660E+00	-1.203E-01	-3.755E+00	 2.116E+00	-2.235E-01	 1.650E-01	 7.500E+00	 6.667E+00	 6.892E+00	 6.063E+02	 5.778E+01	 3.602E+01	-4.145E+02	 1.203E+03	-1.898E+02	-1.866E+02	 8.928E+01	 2.324E+01	 2.707E+01	-2.556E+01
    0.4050	 1.180E+01	 0.000E+00	 0.000E+00	 1.658E+00	-1.279E-01	-2.550E+00	 2.923E+00	-5.266E-02	 1.676E-01	 7.500E+00	 6.794E+00	 7.041E+00	 6.193E+02	 5.769E+01	 3.519E+01	-3.988E+02	 1.201E+03	-1.921E+02	-1.837E+02	 8.904E+01	 2.183E+01	 3.235E+01	-2.273E+01
    0.4100	 1.180E+01	 0.000E+00	 0.000E+00	 1.655E+00	-1.352E-01	-1.377E+00	 3.671E+00	 1.321E-01	 1.723E-01	 7.500E+00	 6.842E+00	 7.103E+00	 6.248E+02	 5.758E+01	 3.435E+01	-3.834E+02	 1.199E+03	-1.944E+02	-1.808E+02	 8.880E+01	 2.028E+01	 3.773E+01	-1.961E+01
    0.4150	 1.180E+01	 0.000E+00	 0.000E+00	 1.652E+00	-1.422E-01	-2.414E-01	 4.363E+00	 3.284E-01	 1.782E-01	 7.500E+00	 6.822E+00	 7.077E+00	 6.226E+02	 5.745E+01	 3.349E+01	-3.682E+02	 1.196E+03	-1.968E+02	-1.777E+02	 8.857E+01	 1.859E+01	 4.316E+01	-1.623E+01
    0.4200	 1.180E+01	 0.000E+00	 0.000E+00	 1.649E+00	-1.489E-01	 8.509E-01	 5.001E+00	 5.353E-01	 1.851E-01	 7.500E+00	 6.736E+00	 6.968E+00	 6.129E+02	 5.729E+01	 3.263E+01	-3.532E+02	 1.193E+03	-1.991E+02	-1.747E+02	 8.836E+01	 1.678E+01	 4.862E+01	-1.263E+01
    0.4250	 1.180E+01	 0.000E+00	 0.000E+00	 1.645E+00	-1.554E-01	 1.897E+00	 5.584E+00	 7.517E-01	 1.929E-01	 7.500E+00	 6.588E+00	 6.784E+00	 5.968E+02	 5.711E+01	 3.176E+01	-3.385E+02	 1.189E+03	-2.015E+02	-1.716E+02	 8.818E+01	 1.487E+01	 5.407E+01	-8.838E+00
    0.4300	 1.180E+01	 0.000E+00	 0.000E+00	 1.640E+00	-1.615E-01	 2.892E+00	 6.114E+00	 9.753E-01	 2.020E-01	 7.500E+00	 6.377E+00	 6.539E+00	 5.752E+02	 5.691E+01	 3.089E+01	-3.241E+02	 1.185E+03	-2.038E+02	-1.684E+02	 8.805E+01	 1.288E+01	 5.949E+01	-4.895E+00
    0.4350	 1.180E+01	 0.000E+00	 0.000E+00	 1.635E+00	-1.673E-01	 3.835E+00	 6.592E+00	 1.202E+00	 2.123E-01	 7.500E+00	 6.106E+00	 6.244E+00	 5.492E+02	 5.669E+01	 3.002E+01	-3.100E+02	 1.180E+03	-2.062E+02	-1.652E+02	 8.796E+01	 1.083E+01	 6.486E+01	-8.366E-01
    0.4400	 1.180E+01	 0.000E+00	 0.000E+00	 1.630E+00	-1.729E-01	 4.723E+00	 7.023E+00	 1.434E+00	 2.235E-01	 7.500E+00	 5.783E+00	 5.905E+00	 5.195E+02	 5.645E+01	 2.914E+01	-2.962E+02	 1.175E+03	-2.085E+02	-1.620E+02	 8.795E+01	 8.727E+00	 7.014E+01	 3.298E+00
    0.4450	 1.180E+01	 0.000E+00	 0.000E+00	 1.624E+00	-1.781E-01	 5.558E+00	 7.409E+00	 1.668E+00	 2.350E-01	 7.500E+00	 5.417E+00	 5.529E+00	 4.864E+02	 5.618E+01	 2.827E+01	-2.828E+02	 1.170E+03	-2.108E+02	-1.588E+02	 8.800E+01	 6.599E+00	 7.530E+01	 7.470E+00
    0.4500	 1.180E+01	 0.000E+00	 0.000E+00	 1.618E+00	-1.831E-01	 6.328E+00	 7.758E+00	 1.903E+00	 2.460E-01	 7.500E+00	 5.021E+00	 5.119E+00	 4.503E+02	 5.590E+01	 2.742E+01	-2.697E+02	 1.164E+03	-2.130E+02	-1.555E+02	 8.813E+01	 4.461E+00	 8.033E+01	 1.164E+01
    0.4550	 1.180E+01	 0.000E+00	 0.000E+00	 1.612E+00	-1.877E-01	 7.049E+00	 8.073E+00	 2.136E+00	 2.559E-01	 7.500E+00	 4.604E+00	 4.682E+00	 4.118E+02	 5.559E+01	 2.657E+01	-2.571E+02	 1.158E+03	-2.152E+02	-1.522E+02	 8.836E+01	 2.329E+00	 8.520E+01	 1.577E+01
    0.4600	 1.180E+01	 0.000E+00	 0.000E+00	 1.605E+00	-1.921E-01	 7.718E+00	 8.358E+00	 2.366E+00	 2.643E-01	 7.500E+00	 4.175E+00	 4.224E+00	 3.716E+02	 5.527E+01	 2.574E+01	-2.448E+02	 1.152E+03	-2.174E+02	-1.489E+02	 8.867E+01	 2.229E-01	 8.989E+01	 1.983E+01
    0.4650	 1.180E+01	 0.000E+00	 0.000E+00	 1.598E+00	-1.962E-01	 8.337E+00	 8.617E+00	 2.591E+00	 2.713E-01	 7.500E+00	 3.740E+00	 3.757E+00	 3.305E+02	 5.493E+01	 2.493E+01	-2.330E+02	 1.145E+03	-2.195E+02	-1.456E+02	 8.909E+01	-1.839E+00	 9.438E+01	 2.377E+01
    0.4700	 1.180E+01	 0.000E+00	 0.000E+00	 1.591E+00	-2.000E-01	 8.908E+00	 8.854E+00	 2.808E+00	 2.766E-01	 7.500E+00	 3.302E+00	 3.290E+00	 2.894E+02	 5.458E+01	 2.413E+01	-2.215E+02	 1.138E+03	-2.215E+02	-1.424E+02	 8.962E+01	-3.839E+00	 9.865E+01	 2.756E+01
    0.4750	 1.180E+01	 0.000E+00	 0.000E+00	 1.584E+00	-2.036E-01	 9.434E+00	 9.071E+00	 3.016E+00	 2.802E-01	 7.500E+00	 2.869E+00	 2.834E+00	 2.493E+02	 5.421E+01	 2.336E+01	-2.105E+02	 1.130E+03	-2.235E+02	-1.391E+02	 9.026E+01	-5.759E+00	 1.027E+02	 3.116E+01
    0.4800	 1.180E+01	 0.000E+00	 0.000E+00	 1.576E+00	-2.069E-01	 9.919E+00	 9.272E+00	 3.214E+00	 2.817E-01	 7.500E+00	 2.445E+00	 2.394E+00	 2.106E+02	 5.383E+01	 2.262E+01	-2.000E+02	 1.123E+03	-2.254E+02	-1.358E+02	 9.102E+01	-7.583E+00	 1.065E+02	 3.454E+01
    0.4850	 1.180E+01	 0.000E+00	 0.000E+00	 1.568E+00	-2.100E-01	 1.037E+01	 9.462E+00	 3.401E+00	 2.808E-01	 7.500E+00	 2.039E+00	 1.976E+00	 1.738E+02	 5.344E+01	 2.190E+01	-1.898E+02	 1.115E+03	-2.272E+02	-1.326E+02	 9.189E+01	-9.298E+00	 1.100E+02	 3.767E+01
    0.4900	 1.180E+01	 0.000E+00	 0.000E+00	 1.560E+00	-2.128E-01	 1.078E+01	 9.642E+00	 3.574E+00	 2.772E-01	 7.500E+00	 1.658E+00	 1.584E+00	 1.393E+02	 5.304E+01	 2.121E+01	-1.802E+02	 1.107E+03	-2.290E+02	-1.294E+02	 9.289E+01	-1.089E+01	 1.133E+02	 4.052E+01
    0.4950	 1.180E+01	 0.000E+00	 0.000E+00	 1.552E+00	-2.154E-01	 1.117E+01	 9.817E+00	 3.733E+00	 2.705E-01	 7.500E+00	 1.308E+00	 1.221E+00	 1.074E+02	 5.264E+01	 2.055E+01	-1.710E+02	 1.099E+03	-2.307E+02	-1.262E+02	 9.401E+01	-1.235E+01	 1.163E+02	 4.307E+01
    0.5000	 1.180E+01	 0.000E+00	 0.000E+00	 1.543E+00	-2.178E-01	 1.153E+01	 9.988E+00	 3.877E+00	 2.606E-01	 7.500E+00	 9.924E-01	 8.915E-01	 7.842E+01	 5.223E+01	 1.993E+01	-1.623E+02	 1.090E+03	-2.323E+02	-1.231E+02	 9.525E+01	-1.366E+01	 1.190E+02	 4.529E+01
    0.5050	 1.180E+01	 0.000E+00	 0.000E+00	 1.534E+00	-2.199E-01	 1.187E+01	 1.016E+01	 4.005E+00	 2.477E-01	 7.500E+00	 7.134E-01	 5.999E-01	 5.277E+01	 5.183E+01	 1.934E+01	-1.541E+02	 1.082E+03	-2.338E+02	-1.200E+02	 9.661E+01	-1.482E+01	 1.215E+02	 4.716E+01
    0.5100	 1.180E+01	 0.000E+00	 0.000E+00	 1.525E+00	-2.219E-01	 1.221E+01	 1.032E+01	 4.117E+00	 2.318E-01	 7.500E+00	 4.724E-01	 3.497E-01	 3.076E+01	 5.143E+01	 1.879E+01	-1.464E+02	 1.073E+03	-2.352E+02	-1.170E+02	 9.809E+01	-1.581E+01	 1.237E+02	 4.867E+01
    0.5150	 1.180E+01	 0.000E+00	 0.000E+00	 1.516E+00	-2.236E-01	 1.253E+01	 1.049E+01	 4.211E+00	 2.128E-01	 7.500E+00	 2.706E-01	 1.433E-01	 1.261E+01	 5.103E+01	 1.828E+01	-1.391E+02	 1.065E+03	-2.366E+02	-1.141E+02	 9.969E+01	-1.663E+01	 1.256E+02	 4.981E+01
    0.5200	 1.180E+01	 0.000E+00	 0.000E+00	 1.507E+00	-2.251E-01	 1.284E+01	 1.065E+01	 4.289E+00	 1.908E-01	 7.500E+00	 1.092E-01	-1.845E-02	-1.623E+00	 5.064E+01	 1.780E+01	-1.324E+02	 1.056E+03	-2.379E+02	-1.112E+02	 1.014E+02	-1.728E+01	 1.273E+02	 5.055E+01
    0.5250	 1.180E+01	 0.000E+00	 0.000E+00	 1.498E+00	-2.264E-01	 1.316E+01	 1.081E+01	 4.349E+00	 1.660E-01	 7.500E+00	-1.218E-02	-1.363E-01	-1.199E+01	 5.025E+01	 1.737E+01	-1.263E+02	 1.048E+03	-2.391E+02	-1.083E+02	 1.032E+02	-1.775E+01	 1.287E+02	 5.091E+01
    0.5300	 1.180E+01	 0.000E+00	 0.000E+00	 1.488E+00	-2.276E-01	 1.348E+01	 1.097E+01	 4.392E+00	 1.383E-01	 7.500E+00	-9.358E-02	-2.121E-01	-1.866E+01	 4.988E+01	 1.697E+01	-1.206E+02	 1.039E+03	-2.402E+02	-1.056E+02	 1.051E+02	-1.805E+01	 1.298E+02	 5.087E+01
    0.5350	 1.180E+01	 0.000E+00	 0.000E+00	 1.479E+00	-2.284E-01	 1.381E+01	 1.113E+01	 4.419E+00	 1.079E-01	 7.500E+00	-1.355E-01	-2.479E-01	-2.180E+01	 4.953E+01	 1.662E+01	-1.155E+02	 1.031E+03	-2.413E+02	-1.029E+02	 1.072E+02	-1.817E+01	 1.307E+02	 5.044E+01
    0.5400	 1.180E+01	 0.000E+00	 0.000E+00	 1.469E+00	-2.291E-01	 1.415E+01	 1.128E+01	 4.429E+00	 7.495E-02	 7.500E+00	-1.401E-01	-2.462E-01	-2.165E+01	 4.919E+01	 1.631E+01	-1.110E+02	 1.023E+03	-2.423E+02	-1.003E+02	 1.093E+02	-1.811E+01	 1.314E+02	 4.962E+01