
Predictions were generated on 10-Jul-2015 at 10:42:55 using FAST (v8.12.00a-bjj, 15-Jun-2015), compiled as a 32-bit application using single precision
 linked with  NWTC Subroutine Library (v2.06.02a-bjj, 8-Jul-2015); ElastoDyn (v1.03.00a-bjj, 9-Jul-2015); InflowWind (v3.00.01a-adp, 27-Apr-2015); AeroDyn14 (v14.04.00a-bjj, 14-Apr-2015); ServoDyn (v1.02.02a-bjj, 11-May-2015)

Description from the FAST input file: FAST Certification Test #12: WindPACT 1.5 MW Baseline with many DOFs with VS and VP and ECD wind.

Time      	Wind1VelX 	Wind1VelY 	Wind1VelZ 	OoPDefl3  	IPDefl3   	TipALxb3  	TipALyb3  	Spn4ALxb1 	Spn4ALyb1 	BldPitch3 	RotAccel  	LSSGagA   	HSShftA   	RootFxb3  	RootFyb3  	RootMEdg3 	RootMFlp3 	LSShftFya 	LSShftFza 	YawBrFxp  	YawBrFyp  	TwrBsFxt  	TwrBsFyt  
(s)       	(m/s)     	(m/s)     	(m/s)     	(m)       	(m)       	(m/s^2)   	(m/s^2)   	(m/s^2)   	(m/s^2)   	(deg)     	(deg/s^2) 	(deg/s^2) 	(deg/s^2) 	(kN)      	(kN)      	(kN·m)    	(kN·m)    	(kN)      	(kN)      	(kN)      	(kN)      	(kN)      	(kN)      
    5.0000	 1.180E+01	 0.000E+00	 0.000E+00	 1.434E+00	-4.220E-01	 1.479E+01	 6.333E-01	 3.402E+00	 1.978E-01	 7.500E+00	 4.769E-02	 5.025E-02	 4.420E+00	 6.131E+01	-4.053E+01	 4.789E+02	 1.129E+03	 2.198E+02	 1.506E+02	 1.036E+02	 5.304E+00	 8.172E+01	 9.689E+00
    5.0500	 1.180E+01	 0.000E+00	 0.000E+00	 1.504E+00	-3.139E-01	 4.860E+01	-4.256E+00	 9.131E+00	 6.617E-01	 2.600E+00	-9.073E+00	-1.120E+00	-9.855E+01	 5.999E+01	-4.457E+01	 5.365E+02	 1.133E+03	 2.343E+02	 1.271E+02	 1.054E+02	 5.215E+00	 8.397E+01	 7.213E+00
    5.1000	 1.180E+01	 0.000E+00	 0.000E+00	 1.627E+00	-3.512E-01	 2.366E+01	 8.558E+00	 9.187E+00	-3.055E-01	 2.600E+00	 1.249E+01	 6.322E+00	 5.561E+02	 6.088E+01	-3.929E+01	 5.334E+02	 1.184E+03	 2.461E+02	 1.031E+02	 1.089E+02	 8.132E+00	 8.661E+01	 1.843E+00
    5.1500	 1.180E+01	 0.000E+00	 0.000E+00	 1.771E+00	-3.604E-01	 1.477E+01	 8.027E+00	 6.231E+00	-1.570E-01	 2.600E+00	 1.056E+01	 1.025E+01	 9.018E+02	 6.760E+01	-3.741E+01	 5.070E+02	 1.315E+03	 2.569E+02	 7.717E+01	 1.154E+02	 7.523E+00	 9.013E+01	 2.904E+00
    5.2000	 1.180E+01	 0.000E+00	 0.000E+00	 1.911E+00	-3.378E-01	 1.593E+01	 6.313E-01	 2.573E+00	-4.969E-02	 2.600E+00	 4.001E-01	 1.322E+00	 1.163E+02	 7.684E+01	-3.515E+01	 4.425E+02	 1.477E+03	 2.653E+02	 4.810E+01	 1.251E+02	 1.170E+00	 9.298E+01	 1.039E+01
    5.2500	 1.180E+01	 0.000E+00	 0.000E+00	 2.042E+00	-3.132E-01	 1.348E+01	-4.367E+00	 1.357E+00	-1.570E-01	 2.600E+00	-6.039E+00	-6.317E+00	-5.556E+02	 8.286E+01	-3.189E+01	 3.793E+02	 1.592E+03	 2.689E+02	 1.883E+01	 1.367E+02	-3.097E+00	 9.534E+01	 1.303E+01
    5.3000	 1.180E+01	 0.000E+00	 0.000E+00	 2.155E+00	-3.087E-01	 4.846E+00	-2.861E+00	 2.833E+00	-4.307E-01	 2.600E+00	-3.523E+00	-3.838E+00	-3.376E+02	 8.369E+01	-2.786E+01	 3.421E+02	 1.631E+03	 2.681E+02	-8.323E+00	 1.483E+02	-8.477E-01	 1.010E+02	 5.332E+00
    5.3500	 1.180E+01	 0.000E+00	 0.000E+00	 2.227E+00	-3.162E-01	-1.874E+00	 1.564E+00	 4.707E+00	-7.304E-01	 2.600E+00	 3.682E+00	 3.786E+00	 3.330E+02	 8.195E+01	-2.345E+01	 3.177E+02	 1.623E+03	 2.648E+02	-3.427E+01	 1.586E+02	 4.074E+00	 1.141E+02	-5.863E+00
    5.4000	 1.180E+01	 0.000E+00	 0.000E+00	 2.239E+00	-3.128E-01	 4.927E-01	 3.076E+00	 5.172E+00	-8.424E-01	 2.600E+00	 7.450E+00	 7.677E+00	 6.753E+02	 8.099E+01	-1.917E+01	 2.808E+02	 1.610E+03	 2.596E+02	-6.130E+01	 1.683E+02	 5.173E+00	 1.351E+02	-9.834E+00
    5.4500	 1.180E+01	 0.000E+00	 0.000E+00	 2.200E+00	-2.880E-01	 1.160E+01	 1.886E-01	 4.653E+00	-7.023E-01	 2.600E+00	 5.060E+00	 5.131E+00	 4.513E+02	 8.140E+01	-1.513E+01	 2.233E+02	 1.600E+03	 2.511E+02	-8.976E+01	 1.792E+02	 5.432E-01	 1.591E+02	-3.713E+00
    5.5000	 1.180E+01	 0.000E+00	 0.000E+00	 2.135E+00	-2.526E-01	 2.078E+01	-3.419E+00	 4.688E+00	-4.486E-01	 2.600E+00	 7.190E-01	 6.109E-01	 5.374E+01	 8.094E+01	-1.112E+01	 1.596E+02	 1.574E+03	 2.387E+02	-1.174E+02	 1.923E+02	-5.714E+00	 1.809E+02	 5.055E+00
    5.5500	 1.180E+01	 0.000E+00	 0.000E+00	 2.067E+00	-2.231E-01	 2.392E+01	-4.248E+00	 5.682E+00	-2.817E-01	 2.600E+00	-6.388E-01	-7.712E-01	-6.784E+01	 7.833E+01	-6.961E+00	 1.062E+02	 1.520E+03	 2.230E+02	-1.419E+02	 2.076E+02	-8.350E+00	 1.987E+02	 6.932E+00
    5.6000	 1.180E+01	 0.000E+00	 0.000E+00	 2.005E+00	-2.049E-01	 2.374E+01	-2.364E+00	 6.706E+00	-2.450E-01	 2.600E+00	 1.268E+00	 1.291E+00	 1.135E+02	 7.467E+01	-2.772E+00	 6.595E+01	 1.453E+03	 2.059E+02	-1.627E+02	 2.235E+02	-6.216E+00	 2.151E+02	-3.521E-01
    5.6500	 1.180E+01	 0.000E+00	 0.000E+00	 1.948E+00	-1.907E-01	 2.347E+01	-2.694E-01	 6.768E+00	-2.524E-01	 2.600E+00	 3.154E+00	 3.244E+00	 2.853E+02	 7.203E+01	 1.194E+00	 2.891E+01	 1.402E+03	 1.876E+02	-1.816E+02	 2.388E+02	-2.737E+00	 2.333E+02	-1.050E+01
    5.7000	 1.180E+01	 0.000E+00	 0.000E+00	 1.899E+00	-1.725E-01	 2.669E+01	-6.990E-02	 5.811E+00	-2.263E-01	 2.600E+00	 2.441E+00	 2.502E+00	 2.201E+02	 7.155E+01	 4.800E+00	-1.325E+01	 1.383E+03	 1.676E+02	-1.995E+02	 2.529E+02	-1.931E+00	 2.543E+02	-1.548E+01
    5.7500	 1.180E+01	 0.000E+00	 0.000E+00	 1.866E+00	-1.508E-01	 2.957E+01	-1.077E+00	 4.845E+00	-1.620E-01	 2.600E+00	 1.541E-01	 1.149E-01	 1.010E+01	 7.233E+01	 8.134E+00	-5.870E+01	 1.385E+03	 1.451E+02	-2.162E+02	 2.660E+02	-4.655E+00	 2.763E+02	-1.284E+01
    5.8000	 1.180E+01	 0.000E+00	 0.000E+00	 1.857E+00	-1.323E-01	 2.910E+01	-1.479E+00	 4.508E+00	-1.226E-01	 2.600E+00	-9.946E-01	-1.070E+00	-9.416E+01	 7.301E+01	 1.138E+01	-1.002E+02	 1.392E+03	 1.203E+02	-2.304E+02	 2.788E+02	-8.475E+00	 2.961E+02	-6.737E+00
    5.8500	 1.180E+01	 0.000E+00	 0.000E+00	 1.872E+00	-1.211E-01	 2.660E+01	-6.424E-01	 4.437E+00	-1.617E-01	 2.600E+00	 1.511E-01	 1.185E-01	 1.042E+01	 7.335E+01	 1.467E+01	-1.352E+02	 1.400E+03	 9.449E+01	-2.413E+02	 2.915E+02	-1.052E+01	 3.116E+02	-3.175E+00
    5.9000	 1.180E+01	 0.000E+00	 0.000E+00	 1.900E+00	-1.142E-01	 2.223E+01	 6.128E-01	 4.024E+00	-2.578E-01	 2.600E+00	 2.087E+00	 2.138E+00	 1.881E+02	 7.381E+01	 1.786E+01	-1.670E+02	 1.414E+03	 6.839E+01	-2.490E+02	 3.039E+02	-9.923E+00	 3.231E+02	-4.816E+00
    5.9500	 1.180E+01	 0.000E+00	 0.000E+00	 1.933E+00	-1.058E-01	 2.060E+01	 7.489E-01	 3.215E+00	-3.579E-01	 2.600E+00	 2.760E+00	 2.819E+00	 2.479E+02	 7.520E+01	 2.082E+01	-2.012E+02	 1.441E+03	 4.211E+01	-2.541E+02	 3.153E+02	-8.060E+00	 3.322E+02	-9.630E+00
    6.0000	 1.180E+01	 0.000E+00	 0.000E+00	 1.966E+00	-9.426E-02	 1.998E+01	-2.819E-01	 2.503E+00	-4.280E-01	 2.600E+00	 1.753E+00	 1.756E+00	 1.545E+02	 7.713E+01	 2.340E+01	-2.369E+02	 1.475E+03	 1.536E+01	-2.570E+02	 3.248E+02	-6.725E+00	 3.408E+02	-1.366E+01
    6.0500	 1.180E+01	-1.545E-03	 0.000E+00	 1.999E+00	-8.297E-02	 2.168E+01	-1.656E+00	 2.309E+00	-4.830E-01	 2.600E+00	 5.070E-01	 4.732E-01	 4.162E+01	 7.902E+01	 2.556E+01	-2.682E+02	 1.508E+03	-1.195E+01	-2.574E+02	 3.319E+02	-6.707E+00	 3.496E+02	-1.432E+01
    6.1000	 1.180E+01	-3.090E-03	 0.000E+00	 2.032E+00	-7.663E-02	 1.874E+01	-1.819E+00	 2.551E+00	-5.597E-01	 2.600E+00	 5.892E-01	 5.412E-01	 4.761E+01	 7.996E+01	 2.726E+01	-2.888E+02	 1.529E+03	-3.943E+01	-2.549E+02	 3.364E+02	-7.569E+00	 3.582E+02	-1.175E+01
    6.1500	 1.181E+01	-7.729E-03	 0.000E+00	 2.061E+00	-7.627E-02	 2.007E+01	-1.438E+00	 2.855E+00	-6.604E-01	 2.600E+00	 1.909E+00	 1.913E+00	 1.683E+02	 8.085E+01	 2.852E+01	-2.990E+02	 1.547E+03	-6.651E+01	-2.495E+02	 3.391E+02	-8.458E+00	 3.646E+02	-7.973E+00
    6.2000	 1.181E+01	-1.237E-02	 0.000E+00	 2.087E+00	-7.913E-02	 1.958E+01	-7.330E-01	 2.991E+00	-7.684E-01	 2.600E+00	 3.212E+00	 3.251E+00	 2.860E+02	 8.159E+01	 2.922E+01	-3.018E+02	 1.563E+03	-9.260E+01	-2.410E+02	 3.407E+02	-8.683E+00	 3.675E+02	-5.267E+00
    6.2500	 1.182E+01	-2.012E-02	 0.000E+00	 2.108E+00	-8.205E-02	 1.958E+01	-5.565E-01	 3.037E+00	-8.623E-01	 2.600E+00	 3.393E+00	 3.436E+00	 3.023E+02	 8.255E+01	 2.939E+01	-3.013E+02	 1.581E+03	-1.173E+02	-2.296E+02	 3.415E+02	-8.017E+00	 3.661E+02	-4.832E+00
    6.3000	 1.183E+01	-2.788E-02	 0.000E+00	 2.127E+00	-8.447E-02	 2.191E+01	-1.041E+00	 3.179E+00	-9.361E-01	 2.600E+00	 2.609E+00	 2.603E+00	 2.290E+02	 8.375E+01	 2.912E+01	-2.985E+02	 1.601E+03	-1.405E+02	-2.158E+02	 3.408E+02	-6.630E+00	 3.618E+02	-6.314E+00
    6.3500	 1.185E+01	-3.887E-02	 0.000E+00	 2.148E+00	-8.813E-02	 2.143E+01	-1.302E+00	 3.499E+00	-9.987E-01	 2.600E+00	 1.817E+00	 1.801E+00	 1.584E+02	 8.460E+01	 2.847E+01	-2.911E+02	 1.617E+03	-1.623E+02	-1.999E+02	 3.382E+02	-4.965E+00	 3.560E+02	-8.150E+00
    6.4000	 1.186E+01	-4.988E-02	 0.000E+00	 2.171E+00	-9.460E-02	 2.199E+01	-1.344E+00	 3.831E+00	-1.055E+00	 2.600E+00	 1.773E+00	 1.753E+00	 1.542E+02	 8.541E+01	 2.753E+01	-2.786E+02	 1.634E+03	-1.827E+02	-1.820E+02	 3.333E+02	-3.703E+00	 3.501E+02	-8.424E+00
    6.4500	 1.188E+01	-6.394E-02	 0.000E+00	 2.196E+00	-1.037E-01	 2.281E+01	-1.223E+00	 4.284E+00	-1.072E+00	 2.600E+00	 2.403E+00	 2.399E+00	 2.110E+02	 8.623E+01	 2.628E+01	-2.612E+02	 1.652E+03	-2.016E+02	-1.622E+02	 3.265E+02	-3.255E+00	 3.437E+02	-6.232E+00
    6.5000	 1.189E+01	-7.804E-02	 0.000E+00	 2.222E+00	-1.142E-01	 2.131E+01	-1.042E+00	 4.651E+00	-1.063E+00	 2.600E+00	 3.079E+00	 3.071E+00	 2.702E+02	 8.691E+01	 2.463E+01	-2.398E+02	 1.670E+03	-2.186E+02	-1.403E+02	 3.184E+02	-3.427E+00	 3.357E+02	-2.396E+00
    6.5500	 1.191E+01	-9.522E-02	 0.000E+00	 2.250E+00	-1.254E-01	 2.225E+01	-1.380E+00	 4.824E+00	-1.049E+00	 2.600E+00	 3.277E+00	 3.286E+00	 2.891E+02	 8.775E+01	 2.258E+01	-2.155E+02	 1.689E+03	-2.331E+02	-1.166E+02	 3.097E+02	-3.491E+00	 3.250E+02	 1.045E+00
    6.6000	 1.193E+01	-1.125E-01	 0.000E+00	 2.278E+00	-1.377E-01	 2.310E+01	-1.809E+00	 5.068E+00	-1.025E+00	 2.600E+00	 3.102E+00	 3.118E+00	 2.743E+02	 8.851E+01	 2.014E+01	-1.871E+02	 1.708E+03	-2.446E+02	-9.158E+01	 3.006E+02	-2.703E+00	 3.112E+02	 2.316E+00
    6.6500	 1.196E+01	-1.330E-01	 0.000E+00	 2.305E+00	-1.519E-01	 2.119E+01	-1.836E+00	 5.313E+00	-1.021E+00	 2.600E+00	 2.888E+00	 2.883E+00	 2.536E+02	 8.893E+01	 1.733E+01	-1.532E+02	 1.722E+03	-2.532E+02	-6.563E+01	 2.910E+02	-9.772E-01	 2.955E+02	 1.324E+00
    6.7000	 1.198E+01	-1.537E-01	 0.000E+00	 2.330E+00	-1.684E-01	 2.295E+01	-1.973E+00	 5.438E+00	-1.032E+00	 2.600E+00	 2.788E+00	 2.800E+00	 2.463E+02	 8.950E+01	 1.421E+01	-1.145E+02	 1.737E+03	-2.592E+02	-3.894E+01	 2.804E+02	 9.828E-01	 2.798E+02	-2.418E-01
    6.7500	 1.201E+01	-1.774E-01	 0.000E+00	 2.352E+00	-1.866E-01	 2.179E+01	-1.713E+00	 5.743E+00	-1.033E+00	 2.600E+00	 2.993E+00	 2.964E+00	 2.607E+02	 8.967E+01	 1.074E+01	-7.100E+01	 1.748E+03	-2.625E+02	-1.140E+01	 2.690E+02	 2.251E+00	 2.648E+02	-3.029E-01
    6.8000	 1.203E+01	-2.012E-01	 0.000E+00	 2.371E+00	-2.057E-01	 2.353E+01	-1.779E+00	 5.942E+00	-1.031E+00	 2.600E+00	 3.224E+00	 3.226E+00	 2.838E+02	 8.982E+01	 6.975E+00	-2.464E+01	 1.756E+03	-2.631E+02	 1.683E+01	 2.568E+02	 2.448E+00	 2.508E+02	 1.922E+00
    6.8500	 1.206E+01	-2.284E-01	 0.000E+00	 2.386E+00	-2.249E-01	 2.384E+01	-1.797E+00	 6.209E+00	-1.018E+00	 2.600E+00	 3.464E+00	 3.464E+00	 3.047E+02	 8.961E+01	 2.966E+00	 2.400E+01	 1.759E+03	-2.605E+02	 4.529E+01	 2.445E+02	 2.036E+00	 2.368E+02	 5.306E+00
    6.9000	 1.210E+01	-2.557E-01	 0.000E+00	 2.396E+00	-2.442E-01	 2.312E+01	-1.708E+00	 6.214E+00	-1.028E+00	 2.600E+00	 3.658E+00	 3.663E+00	 3.222E+02	 8.914E+01	-1.185E+00	 7.402E+01	 1.758E+03	-2.547E+02	 7.332E+01	 2.328E+02	 1.875E+00	 2.220E+02	 7.809E+00
    6.9500	 1.213E+01	-2.863E-01	 0.000E+00	 2.401E+00	-2.632E-01	 2.367E+01	-1.689E+00	 6.286E+00	-1.034E+00	 2.600E+00	 3.800E+00	 3.793E+00	 3.336E+02	 8.869E+01	-5.344E+00	 1.240E+02	 1.754E+03	-2.458E+02	 1.003E+02	 2.218E+02	 2.494E+00	 2.066E+02	 8.140E+00
    7.0000	 1.216E+01	-3.170E-01	 0.000E+00	 2.401E+00	-2.813E-01	 2.455E+01	-1.724E+00	 6.330E+00	-1.035E+00	 2.600E+00	 3.776E+00	 3.768E+00	 3.314E+02	 8.828E+01	-9.492E+00	 1.732E+02	 1.749E+03	-2.341E+02	 1.260E+02	 2.117E+02	 3.700E+00	 1.913E+02	 6.666E+00
    7.0500	 1.220E+01	-3.511E-01	 0.000E+00	 2.397E+00	-2.983E-01	 2.561E+01	-1.883E+00	 6.358E+00	-1.027E+00	 2.600E+00	 3.624E+00	 3.602E+00	 3.168E+02	 8.787E+01	-1.362E+01	 2.211E+02	 1.744E+03	-2.197E+02	 1.503E+02	 2.020E+02	 4.810E+00	 1.775E+02	 4.982E+00
    7.1000	 1.224E+01	-3.854E-01	 0.000E+00	 2.391E+00	-3.143E-01	 2.638E+01	-2.101E+00	 6.347E+00	-1.007E+00	 2.600E+00	 3.467E+00	 3.444E+00	 3.029E+02	 8.736E+01	-1.774E+01	 2.679E+02	 1.736E+03	-2.026E+02	 1.733E+02	 1.929E+02	 5.202E+00	 1.659E+02	 4.598E+00
    7.1500	 1.228E+01	-4.230E-01	 0.000E+00	 2.384E+00	-3.300E-01	 2.693E+01	-2.264E+00	 6.246E+00	-9.932E-01	 2.600E+00	 3.514E+00	 3.484E+00	 3.065E+02	 8.677E+01	-2.181E+01	 3.142E+02	 1.727E+03	-1.829E+02	 1.945E+02	 1.845E+02	 4.796E+00	 1.565E+02	 5.814E+00
    7.2000	 1.232E+01	-4.607E-01	 0.000E+00	 2.376E+00	-3.482E-01	 2.817E+01	-2.317E+00	 6.260E+00	-1.009E+00	 2.666E+00	 3.889E+00	 4.177E+00	 3.674E+02	 8.633E+01	-2.572E+01	 3.591E+02	 1.719E+03	-1.608E+02	 2.136E+02	 1.773E+02	 4.126E+00	 1.487E+02	 7.574E+00
    7.2500	 1.236E+01	-5.020E-01	 0.000E+00	 2.366E+00	-3.662E-01	 2.771E+01	-2.192E+00	 6.085E+00	-1.027E+00	 2.762E+00	 4.164E+00	 4.418E+00	 3.886E+02	 8.599E+01	-2.943E+01	 4.008E+02	 1.711E+03	-1.365E+02	 2.301E+02	 1.716E+02	 3.454E+00	 1.419E+02	 8.710E+00
    7.3000	 1.241E+01	-5.436E-01	 0.000E+00	 2.352E+00	-3.824E-01	 2.879E+01	-2.348E+00	 5.850E+00	-1.053E+00	 2.863E+00	 3.925E+00	 4.165E+00	 3.664E+02	 8.594E+01	-3.293E+01	 4.390E+02	 1.705E+03	-1.106E+02	 2.437E+02	 1.677E+02	 3.188E+00	 1.361E+02	 8.277E+00
    7.3500	 1.245E+01	-5.886E-01	 0.000E+00	 2.336E+00	-3.968E-01	 2.840E+01	-2.352E+00	 5.902E+00	-1.066E+00	 2.962E+00	 3.544E+00	 3.747E+00	 3.296E+02	 8.582E+01	-3.615E+01	 4.737E+02	 1.697E+03	-8.337E+01	 2.543E+02	 1.653E+02	 3.362E+00	 1.316E+02	 6.370E+00
    7.4000	 1.250E+01	-6.340E-01	 0.000E+00	 2.319E+00	-4.100E-01	 2.790E+01	-2.223E+00	 5.830E+00	-1.096E+00	 3.056E+00	 3.340E+00	 3.535E+00	 3.110E+02	 8.567E+01	-3.902E+01	 5.051E+02	 1.689E+03	-5.520E+01	 2.618E+02	 1.644E+02	 3.603E+00	 1.294E+02	 4.086E+00
    7.4500	 1.255E+01	-6.827E-01	 0.000E+00	 2.302E+00	-4.219E-01	 2.737E+01	-2.020E+00	 5.824E+00	-1.120E+00	 3.150E+00	 3.461E+00	 3.651E+00	 3.212E+02	 8.555E+01	-4.151E+01	 5.324E+02	 1.680E+03	-2.627E+01	 2.662E+02	 1.645E+02	 3.386E+00	 1.302E+02	 2.739E+00
    7.5000	 1.260E+01	-7.318E-01	 0.000E+00	 2.285E+00	-4.320E-01	 2.708E+01	-1.901E+00	 5.996E+00	-1.113E+00	 3.248E+00	 3.713E+00	 3.922E+00	 3.450E+02	 8.555E+01	-4.358E+01	 5.543E+02	 1.674E+03	 3.199E+00	 2.674E+02	 1.657E+02	 2.465E+00	 1.337E+02	 2.841E+00
    7.5500	 1.265E+01	-7.846E-01	 0.000E+00	 2.269E+00	-4.398E-01	 2.690E+01	-1.937E+00	 5.947E+00	-1.112E+00	 3.353E+00	 3.866E+00	 4.102E+00	 3.608E+02	 8.576E+01	-4.522E+01	 5.703E+02	 1.669E+03	 3.279E+01	 2.652E+02	 1.684E+02	 1.100E+00	 1.391E+02	 3.690E+00
    7.6000	 1.270E+01	-8.378E-01	 0.000E+00	 2.253E+00	-4.455E-01	 2.661E+01	-2.040E+00	 5.935E+00	-1.103E+00	 3.462E+00	 3.848E+00	 4.077E+00	 3.586E+02	 8.610E+01	-4.637E+01	 5.801E+02	 1.666E+03	 6.190E+01	 2.596E+02	 1.727E+02	-1.370E-01	 1.455E+02	 3.936E+00
    7.6500	 1.275E+01	-8.945E-01	 0.000E+00	 2.239E+00	-4.493E-01	 2.621E+01	-2.120E+00	 5.910E+00	-1.102E+00	 3.572E+00	 3.710E+00	 3.946E+00	 3.471E+02	 8.650E+01	-4.702E+01	 5.844E+02	 1.665E+03	 8.997E+01	 2.506E+02	 1.787E+02	-8.140E-01	 1.527E+02	 2.662E+00
    7.7000	 1.281E+01	-9.516E-01	 0.000E+00	 2.227E+00	-4.515E-01	 2.565E+01	-2.115E+00	 5.948E+00	-1.103E+00	 3.683E+00	 3.586E+00	 3.817E+00	 3.358E+02	 8.691E+01	-4.718E+01	 5.835E+02	 1.663E+03	 1.167E+02	 2.385E+02	 1.860E+02	-9.984E-01	 1.609E+02	 1.355E-01
    7.7500	 1.287E+01	-1.012E+00	 0.000E+00	 2.216E+00	-4.523E-01	 2.512E+01	-2.073E+00	 6.005E+00	-1.105E+00	 3.793E+00	 3.534E+00	 3.766E+00	 3.312E+02	 8.733E+01	-4.688E+01	 5.778E+02	 1.663E+03	 1.419E+02	 2.237E+02	 1.941E+02	-1.167E+00	 1.709E+02	-2.436E+00
    7.8000	 1.292E+01	-1.074E+00	 0.000E+00	 2.205E+00	-4.513E-01	 2.463E+01	-2.044E+00	 6.026E+00	-1.104E+00	 3.905E+00	 3.560E+00	 3.798E+00	 3.341E+02	 8.776E+01	-4.614E+01	 5.669E+02	 1.663E+03	 1.654E+02	 2.061E+02	 2.027E+02	-1.801E+00	 1.826E+02	-3.870E+00
    7.8500	 1.298E+01	-1.139E+00	 0.000E+00	 2.196E+00	-4.486E-01	 2.423E+01	-2.043E+00	 5.947E+00	-1.107E+00	 4.020E+00	 3.665E+00	 3.911E+00	 3.440E+02	 8.816E+01	-4.495E+01	 5.507E+02	 1.663E+03	 1.871E+02	 1.860E+02	 2.119E+02	-2.985E+00	 1.957E+02	-3.921E+00
    7.9000	 1.304E+01	-1.204E+00	 0.000E+00	 2.186E+00	-4.441E-01	 2.386E+01	-2.038E+00	 5.934E+00	-1.102E+00	 4.139E+00	 3.847E+00	 4.111E+00	 3.616E+02	 8.853E+01	-4.328E+01	 5.292E+02	 1.663E+03	 2.063E+02	 1.634E+02	 2.216E+02	-4.339E+00	 2.093E+02	-3.415E+00
    7.9500	 1.310E+01	-1.274E+00	 0.000E+00	 2.176E+00	-4.378E-01	 2.359E+01	-2.039E+00	 5.937E+00	-1.105E+00	 4.263E+00	 4.053E+00	 4.328E+00	 3.807E+02	 8.883E+01	-4.112E+01	 5.020E+02	 1.662E+03	 2.227E+02	 1.389E+02	 2.319E+02	-5.370E+00	 2.228E+02	-3.496E+00
    8.0000	 1.316E+01	-1.343E+00	 0.000E+00	 2.166E+00	-4.295E-01	 2.338E+01	-2.087E+00	 5.932E+00	-1.111E+00	 4.392E+00	 4.176E+00	 4.461E+00	 3.924E+02	 8.901E+01	-3.850E+01	 4.693E+02	 1.659E+03	 2.361E+02	 1.128E+02	 2.425E+02	-5.840E+00	 2.358E+02	-4.726E+00
    8.0500	 1.323E+01	-1.417E+00	 0.000E+00	 2.154E+00	-4.191E-01	 2.328E+01	-2.227E+00	 5.894E+00	-1.124E+00	 4.526E+00	 4.174E+00	 4.463E+00	 3.926E+02	 8.906E+01	-3.547E+01	 4.313E+02	 1.655E+03	 2.464E+02	 8.544E+01	 2.532E+02	-5.918E+00	 2.486E+02	-6.695E+00
    8.1000	 1.329E+01	-1.491E+00	 0.000E+00	 2.141E+00	-4.068E-01	 2.330E+01	-2.426E+00	 5.812E+00	-1.139E+00	 4.661E+00	 4.129E+00	 4.413E+00	 3.882E+02	 8.897E+01	-3.209E+01	 3.890E+02	 1.649E+03	 2.537E+02	 5.716E+01	 2.636E+02	-6.000E+00	 2.614E+02	-8.407E+00
    8.1500	 1.336E+01	-1.569E+00	 0.000E+00	 2.127E+00	-3.930E-01	 2.348E+01	-2.605E+00	 5.710E+00	-1.158E+00	 4.799E+00	 4.180E+00	 4.464E+00	 3.926E+02	 8.876E+01	-2.842E+01	 3.434E+02	 1.641E+03	 2.579E+02	 2.818E+01	 2.734E+02	-6.381E+00	 2.742E+02	-9.063E+00
    8.2000	 1.342E+01	-1.648E+00	 0.000E+00	 2.111E+00	-3.784E-01	 2.377E+01	-2.693E+00	 5.590E+00	-1.182E+00	 4.939E+00	 4.408E+00	 4.702E+00	 4.136E+02	 8.847E+01	-2.449E+01	 2.955E+02	 1.633E+03	 2.589E+02	-1.179E+00	 2.825E+02	-7.052E+00	 2.867E+02	-8.619E+00
    8.2500	 1.349E+01	-1.731E+00	 0.000E+00	 2.095E+00	-3.634E-01	 2.421E+01	-2.709E+00	 5.464E+00	-1.219E+00	 5.086E+00	 4.752E+00	 5.063E+00	 4.454E+02	 8.813E+01	-2.035E+01	 2.455E+02	 1.623E+03	 2.567E+02	-3.047E+01	 2.911E+02	-7.734E+00	 2.984E+02	-7.746E+00
    8.3000	 1.355E+01	-1.814E+00	 0.000E+00	 2.079E+00	-3.478E-01	 2.458E+01	-2.717E+00	 5.315E+00	-1.267E+00	 5.241E+00	 5.048E+00	 5.381E+00	 4.733E+02	 8.775E+01	-1.603E+01	 1.936E+02	 1.614E+03	 2.513E+02	-5.924E+01	 2.990E+02	-8.106E+00	 3.086E+02	-7.281E+00
    8.3500	 1.362E+01	-1.901E+00	 0.000E+00	 2.063E+00	-3.317E-01	 2.486E+01	-2.791E+00	 5.142E+00	-1.330E+00	 5.403E+00	 5.171E+00	 5.518E+00	 4.854E+02	 8.731E+01	-1.160E+01	 1.398E+02	 1.604E+03	 2.427E+02	-8.708E+01	 3.062E+02	-8.028E+00	 3.173E+02	-7.616E+00
    8.4000	 1.369E+01	-1.989E+00	 0.000E+00	 2.049E+00	-3.152E-01	 2.507E+01	-2.915E+00	 4.958E+00	-1.405E+00	 5.569E+00	 5.171E+00	 5.514E+00	 4.850E+02	 8.685E+01	-7.095E+00	 8.502E+01	 1.595E+03	 2.311E+02	-1.137E+02	 3.125E+02	-7.619E+00	 3.245E+02	-8.464E+00
    8.4500	 1.376E+01	-2.081E+00	 0.000E+00	 2.035E+00	-2.987E-01	 2.531E+01	-3.029E+00	 4.783E+00	-1.491E+00	 5.737E+00	 5.192E+00	 5.523E+00	 4.858E+02	 8.640E+01	-2.579E+00	 3.022E+01	 1.587E+03	 2.167E+02	-1.389E+02	 3.176E+02	-7.155E+00	 3.306E+02	-9.113E+00
    8.5000	 1.383E+01	-2.174E+00	 0.000E+00	 2.023E+00	-2.830E-01	 2.556E+01	-3.073E+00	 4.632E+00	-1.583E+00	 5.908E+00	 5.369E+00	 5.705E+00	 5.018E+02	 8.601E+01	 1.910E+00	-2.377E+01	 1.579E+03	 1.995E+02	-1.624E+02	 3.214E+02	-6.867E+00	 3.356E+02	-8.965E+00
    8.5500	 1.390E+01	-2.271E+00	 0.000E+00	 2.014E+00	-2.682E-01	 2.578E+01	-3.068E+00	 4.514E+00	-1.675E+00	 6.085E+00	 5.689E+00	 6.039E+00	 5.312E+02	 8.568E+01	 6.328E+00	-7.651E+01	 1.574E+03	 1.798E+02	-1.840E+02	 3.238E+02	-6.801E+00	 3.394E+02	-7.942E+00
    8.6000	 1.397E+01	-2.368E+00	 0.000E+00	 2.006E+00	-2.545E-01	 2.585E+01	-3.078E+00	 4.427E+00	-1.764E+00	 6.270E+00	 6.027E+00	 6.392E+00	 5.622E+02	 8.542E+01	 1.062E+01	-1.279E+02	 1.570E+03	 1.577E+02	-2.032E+02	 3.250E+02	-6.790E+00	 3.416E+02	-6.533E+00
    8.6500	 1.404E+01	-2.470E+00	 0.000E+00	 2.001E+00	-2.420E-01	 2.581E+01	-3.164E+00	 4.369E+00	-1.849E+00	 6.463E+00	 6.255E+00	 6.635E+00	 5.836E+02	 8.523E+01	 1.473E+01	-1.774E+02	 1.568E+03	 1.335E+02	-2.199E+02	 3.250E+02	-6.583E+00	 3.418E+02	-5.425E+00
    8.7000	 1.411E+01	-2.572E+00	 0.000E+00	 1.999E+00	-2.307E-01	 2.566E+01	-3.311E+00	 4.336E+00	-1.929E+00	 6.662E+00	 6.352E+00	 6.733E+00	 5.922E+02	 8.507E+01	 1.860E+01	-2.244E+02	 1.568E+03	 1.076E+02	-2.336E+02	 3.239E+02	-6.029E+00	 3.400E+02	-5.013E+00
    8.7500	 1.418E+01	-2.678E+00	 0.000E+00	 1.998E+00	-2.211E-01	 2.551E+01	-3.460E+00	 4.337E+00	-2.007E+00	 6.864E+00	 6.396E+00	 6.771E+00	 5.956E+02	 8.494E+01	 2.218E+01	-2.677E+02	 1.568E+03	 8.033E+01	-2.443E+02	 3.215E+02	-5.204E+00	 3.364E+02	-5.112E+00
    8.8000	 1.425E+01	-2.786E+00	 0.000E+00	 1.999E+00	-2.136E-01	 2.532E+01	-3.550E+00	 4.384E+00	-2.078E+00	 7.071E+00	 6.483E+00	 6.855E+00	 6.030E+02	 8.482E+01	 2.540E+01	-3.064E+02	 1.569E+03	 5.195E+01	-2.519E+02	 3.178E+02	-4.356E+00	 3.314E+02	-5.121E+00
    8.8500	 1.432E+01	-2.897E+00	 0.000E+00	 2.000E+00	-2.085E-01	 2.516E+01	-3.582E+00	 4.487E+00	-2.139E+00	 7.281E+00	 6.646E+00	 7.020E+00	 6.175E+02	 8.470E+01	 2.822E+01	-3.399E+02	 1.571E+03	 2.273E+01	-2.563E+02	 3.127E+02	-3.729E+00	 3.252E+02	-4.490E+00
    8.9000	 1.439E+01	-3.009E+00	 0.000E+00	 2.003E+00	-2.058E-01	 2.498E+01	-3.578E+00	 4.643E+00	-2.185E+00	 7.497E+00	 6.856E+00	 7.236E+00	 6.366E+02	 8.459E+01	 3.062E+01	-3.679E+02	 1.573E+03	-7.023E+00	-2.575E+02	 3.064E+02	-3.378E+00	 3.177E+02	-3.152E+00
    8.9500	 1.446E+01	-3.125E+00	 0.000E+00	 2.005E+00	-2.054E-01	 2.479E+01	-3.584E+00	 4.833E+00	-2.213E+00	 7.719E+00	 7.027E+00	 7.431E+00	 6.536E+02	 8.443E+01	 3.258E+01	-3.905E+02	 1.575E+03	-3.688E+01	-2.552E+02	 2.990E+02	-3.139E+00	 3.090E+02	-1.567E+00
    9.0000	 1.453E+01	-3.243E+00	 0.000E+00	 2.007E+00	-2.072E-01	 2.453E+01	-3.600E+00	 5.040E+00	-2.226E+00	 7.946E+00	 7.137E+00	 7.538E+00	 6.631E+02	 8.418E+01	 3.408E+01	-4.075E+02	 1.575E+03	-6.639E+01	-2.495E+02	 2.908E+02	-2.776E+00	 2.988E+02	-3.622E-01
    9.0500	 1.461E+01	-3.363E+00	 0.000E+00	 2.007E+00	-2.110E-01	 2.427E+01	-3.625E+00	 5.248E+00	-2.225E+00	 8.178E+00	 7.181E+00	 7.560E+00	 6.650E+02	 8.384E+01	 3.509E+01	-4.187E+02	 1.574E+03	-9.508E+01	-2.404E+02	 2.819E+02	-2.167E+00	 2.873E+02	 1.388E-01
    9.1000	 1.468E+01	-3.485E+00	 0.000E+00	 2.005E+00	-2.166E-01	 2.406E+01	-3.654E+00	 5.456E+00	-2.207E+00	 8.412E+00	 7.165E+00	 7.532E+00	 6.626E+02	 8.343E+01	 3.553E+01	-4.237E+02	 1.571E+03	-1.226E+02	-2.280E+02	 2.723E+02	-1.409E+00	 2.749E+02	 1.408E-01
    9.1500	 1.475E+01	-3.611E+00	 0.000E+00	 1.999E+00	-2.240E-01	 2.397E+01	-3.689E+00	 5.663E+00	-2.169E+00	 8.649E+00	 7.102E+00	 7.445E+00	 6.549E+02	 8.292E+01	 3.542E+01	-4.222E+02	 1.566E+03	-1.486E+02	-2.125E+02	 2.621E+02	-7.555E-01	 2.620E+02	 1.885E-01
    9.2000	 1.482E+01	-3.738E+00	 0.000E+00	 1.990E+00	-2.332E-01	 2.446E+01	-3.719E+00	 5.879E+00	-2.112E+00	 8.888E+00	 7.062E+00	 7.382E+00	 6.493E+02	 8.232E+01	 3.477E+01	-4.141E+02	 1.558E+03	-1.728E+02	-1.939E+02	 2.514E+02	-3.768E-01	 2.489E+02	 6.852E-01
    9.2500	 1.489E+01	-3.869E+00	 0.000E+00	 1.976E+00	-2.440E-01	 2.445E+01	-3.668E+00	 6.072E+00	-2.039E+00	 9.129E+00	 7.045E+00	 7.375E+00	 6.488E+02	 8.153E+01	 3.355E+01	-3.992E+02	 1.547E+03	-1.949E+02	-1.724E+02	 2.403E+02	-2.723E-01	 2.358E+02	 1.615E+00
    9.3000	 1.496E+01	-4.001E+00	 0.000E+00	 1.958E+00	-2.563E-01	 2.440E+01	-3.554E+00	 6.213E+00	-1.955E+00	 9.372E+00	 7.040E+00	 7.376E+00	 6.488E+02	 8.054E+01	 3.181E+01	-3.779E+02	 1.532E+03	-2.144E+02	-1.484E+02	 2.292E+02	-2.966E-01	 2.226E+02	 2.584E+00
    9.3500	 1.503E+01	-4.137E+00	 0.000E+00	 1.935E+00	-2.698E-01	 2.434E+01	-3.402E+00	 6.282E+00	-1.866E+00	 9.618E+00	 7.002E+00	 7.311E+00	 6.431E+02	 7.943E+01	 2.955E+01	-3.507E+02	 1.513E+03	-2.311E+02	-1.221E+02	 2.182E+02	-2.816E-01	 2.093E+02	 3.129E+00
    9.4000	 1.509E+01	-4.274E+00	 0.000E+00	 1.906E+00	-2.840E-01	 2.432E+01	-3.246E+00	 6.303E+00	-1.769E+00	 9.866E+00	 6.842E+00	 7.126E+00	 6.269E+02	 7.821E+01	 2.681E+01	-3.180E+02	 1.492E+03	-2.444E+02	-9.398E+01	 2.076E+02	-1.615E-01	 1.962E+02	 3.052E+00
    9.4500	 1.516E+01	-4.415E+00	 0.000E+00	 1.873E+00	-2.985E-01	 2.438E+01	-3.085E+00	 6.293E+00	-1.665E+00	 1.011E+01	 6.590E+00	 6.852E+00	 6.027E+02	 7.694E+01	 2.362E+01	-2.804E+02	 1.468E+03	-2.543E+02	-6.436E+01	 1.972E+02	-8.879E-03	 1.836E+02	 2.515E+00
    9.5000	 1.523E+01	-4.556E+00	 0.000E+00	 1.834E+00	-3.132E-01	 2.448E+01	-2.898E+00	 6.252E+00	-1.556E+00	 1.036E+01	 6.329E+00	 6.571E+00	 5.780E+02	 7.564E+01	 2.005E+01	-2.383E+02	 1.441E+03	-2.606E+02	-3.364E+01	 1.872E+02	 2.419E-02	 1.718E+02	 1.908E+00
    9.5500	 1.529E+01	-4.702E+00	 0.000E+00	 1.790E+00	-3.279E-01	 2.454E+01	-2.684E+00	 6.197E+00	-1.447E+00	 1.060E+01	 6.112E+00	 6.343E+00	 5.579E+02	 7.430E+01	 1.612E+01	-1.925E+02	 1.412E+03	-2.632E+02	-2.223E+00	 1.777E+02	-1.834E-01	 1.610E+02	 1.548E+00
    9.6000	 1.536E+01	-4.849E+00	 0.000E+00	 1.743E+00	-3.425E-01	 2.448E+01	-2.445E+00	 6.079E+00	-1.342E+00	 1.085E+01	 5.942E+00	 6.165E+00	 5.423E+02	 7.295E+01	 1.192E+01	-1.436E+02	 1.381E+03	-2.619E+02	 2.944E+01	 1.688E+02	-6.324E-01	 1.512E+02	 1.453E+00
    9.6500	 1.542E+01	-4.998E+00	 0.000E+00	 1.692E+00	-3.567E-01	 2.433E+01	-2.204E+00	 5.893E+00	-1.243E+00	 1.109E+01	 5.760E+00	 5.955E+00	 5.238E+02	 7.164E+01	 7.488E+00	-9.242E+01	 1.350E+03	-2.567E+02	 6.083E+01	 1.605E+02	-1.222E+00	 1.422E+02	 1.364E+00
    9.7000	 1.549E+01	-5.150E+00	 0.000E+00	 1.639E+00	-3.702E-01	 2.415E+01	-1.964E+00	 5.660E+00	-1.154E+00	 1.133E+01	 5.519E+00	 5.692E+00	 5.007E+02	 7.041E+01	 2.898E+00	-3.979E+01	 1.318E+03	-2.476E+02	 9.142E+01	 1.530E+02	-1.793E+00	 1.341E+02	 9.245E-01
    9.7500	 1.555E+01	-5.304E+00	 0.000E+00	 1.583E+00	-3.831E-01	 2.393E+01	-1.731E+00	 5.411E+00	-1.069E+00	 1.157E+01	 5.183E+00	 5.340E+00	 4.698E+02	 6.930E+01	-1.781E+00	 1.360E+01	 1.286E+03	-2.346E+02	 1.207E+02	 1.464E+02	-2.279E+00	 1.267E+02	-6.829E-03
    9.8000	 1.561E+01	-5.460E+00	 0.000E+00	 1.526E+00	-3.951E-01	 2.359E+01	-1.479E+00	 5.165E+00	-9.934E-01	 1.181E+01	 4.838E+00	 4.961E+00	 4.364E+02	 6.832E+01	-6.464E+00	 6.694E+01	 1.255E+03	-2.180E+02	 1.482E+02	 1.406E+02	-2.722E+00	 1.203E+02	-1.261E+00
    9.8500	 1.567E+01	-5.619E+00	 0.000E+00	 1.470E+00	-4.063E-01	 2.315E+01	-1.217E+00	 4.916E+00	-9.214E-01	 1.205E+01	 4.514E+00	 4.621E+00	 4.065E+02	 6.746E+01	-1.109E+01	 1.195E+02	 1.225E+03	-1.981E+02	 1.735E+02	 1.355E+02	-3.245E+00	 1.150E+02	-2.479E+00
    9.9000	 1.573E+01	-5.780E+00	 0.000E+00	 1.413E+00	-4.166E-01	 2.254E+01	-9.587E-01	 4.667E+00	-8.497E-01	 1.228E+01	 4.216E+00	 4.309E+00	 3.790E+02	 6.675E+01	-1.558E+01	 1.703E+02	 1.196E+03	-1.751E+02	 1.963E+02	 1.312E+02	-3.959E+00	 1.109E+02	-3.361E+00
    9.9500	 1.579E+01	-5.943E+00	 0.000E+00	 1.358E+00	-4.258E-01	 2.175E+01	-7.279E-01	 4.429E+00	-7.742E-01	 1.250E+01	 3.904E+00	 3.978E+00	 3.499E+02	 6.611E+01	-1.985E+01	 2.184E+02	 1.169E+03	-1.495E+02	 2.162E+02	 1.277E+02	-4.858E+00	 1.078E+02	-3.896E+00
   10.0000	 1.585E+01	-6.108E+00	 0.000E+00	 1.305E+00	-4.339E-01	 2.093E+01	-5.099E-01	 4.210E+00	-6.978E-01	 1.273E+01	 3.608E+00	 3.650E+00	 3.211E+02	 6.556E+01	-2.384E+01	 2.632E+02	 1.143E+03	-1.215E+02	 2.328E+02	 1.250E+02	-5.801E+00	 1.057E+02	-4.374E+00
   10.0500	 1.590E+01	-6.276E+00	 0.000E+00	 1.254E+00	-4.398E-01	 2.031E+01	-3.554E-01	 4.082E+00	-6.079E-01	 1.291E+01	 3.200E+00	 3.202E+00	 2.816E+02	 6.510E+01	-2.754E+01	 3.047E+02	 1.118E+03	-9.171E+01	 2.459E+02	 1.232E+02	-6.671E+00	 1.046E+02	-5.092E+00
   10.1000	 1.596E+01	-6.445E+00	 0.000E+00	 1.207E+00	-4.447E-01	 1.959E+01	-1.346E-01	 3.997E+00	-5.251E-01	 1.307E+01	 2.914E+00	 2.921E+00	 2.569E+02	 6.475E+01	-3.085E+01	 3.420E+02	 1.096E+03	-6.060E+01	 2.553E+02	 1.222E+02	-7.316E+00	 1.044E+02	-6.224E+00
   10.1500	 1.601E+01	-6.617E+00	 0.000E+00	 1.163E+00	-4.485E-01	 1.854E+01	 1.032E-01	 3.894E+00	-4.524E-01	 1.323E+01	 2.717E+00	 2.729E+00	 2.401E+02	 6.446E+01	-3.370E+01	 3.742E+02	 1.075E+03	-2.858E+01	 2.608E+02	 1.221E+02	-7.856E+00	 1.052E+02	-7.513E+00
   10.2000	 1.606E+01	-6.790E+00	 0.000E+00	 1.122E+00	-4.508E-01	 1.735E+01	 2.516E-01	 3.746E+00	-3.892E-01	 1.338E+01	 2.506E+00	 2.507E+00	 2.205E+02	 6.428E+01	-3.611E+01	 4.004E+02	 1.057E+03	 3.901E+00	 2.624E+02	 1.229E+02	-8.477E+00	 1.069E+02	-8.562E+00
   10.2500	 1.611E+01	-6.966E+00	 0.000E+00	 1.084E+00	-4.510E-01	 1.617E+01	 2.885E-01	 3.585E+00	-3.271E-01	 1.354E+01	 2.197E+00	 2.167E+00	 1.906E+02	 6.412E+01	-3.796E+01	 4.201E+02	 1.039E+03	 3.636E+01	 2.601E+02	 1.243E+02	-9.268E+00	 1.096E+02	-9.177E+00
   10.3000	 1.616E+01	-7.143E+00	 0.000E+00	 1.048E+00	-4.491E-01	 1.506E+01	 3.054E-01	 3.456E+00	-2.617E-01	 1.368E+01	 1.865E+00	 1.828E+00	 1.608E+02	 6.376E+01	-3.924E+01	 4.335E+02	 1.021E+03	 6.823E+01	 2.537E+02	 1.264E+02	-1.011E+01	 1.133E+02	-9.559E+00
   10.3500	 1.620E+01	-7.323E+00	 0.000E+00	 1.013E+00	-4.452E-01	 1.391E+01	 4.040E-01	 3.368E+00	-1.977E-01	 1.383E+01	 1.670E+00	 1.636E+00	 1.439E+02	 6.320E+01	-3.997E+01	 4.411E+02	 9.998E+02	 9.896E+01	 2.435E+02	 1.290E+02	-1.079E+01	 1.177E+02	-1.008E+01
   10.4000	 1.625E+01	-7.504E+00	 0.000E+00	 9.772E-01	-4.390E-01	 1.288E+01	 5.687E-01	 3.306E+00	-1.354E-01	 1.397E+01	 1.581E+00	 1.545E+00	 1.359E+02	 6.239E+01	-4.012E+01	 4.424E+02	 9.765E+02	 1.280E+02	 2.296E+02	 1.321E+02	-1.125E+01	 1.226E+02	-1.090E+01