
Predictions were generated on 10-Jul-2015 at 10:42:51 using FAST (v8.12.00a-bjj, 15-Jun-2015), compiled as a 32-bit application using single precision
 linked with  NWTC Subroutine Library (v2.06.02a-bjj, 8-Jul-2015); ElastoDyn (v1.03.00a-bjj, 9-Jul-2015); InflowWind (v3.00.01a-adp, 27-Apr-2015); AeroDyn14 (v14.04.00a-bjj, 14-Apr-2015); ServoDyn (v1.02.02a-bjj, 11-May-2015)

Description from the FAST input file: FAST Certification Test #11: WindPACT 1.5 MW Baseline with many DOFs undergoing a pitch failure.

Time      	Wind1VelX 	Wind1VelY 	Wind1VelZ 	RotSpeed  	BldPitch1 	OoPDefl1  	OoPDefl3  	TipALxb1  	RootMxb1  	RootMyb1  	RootMzb1  	RotThrust 	LSShftFya 	LSShftFza 	LSSTipMya 	LSSTipMza 	RotTorq   	RotPwr    	TTDspFA   	TTDspSS   	TwHt1MLxt 	TwHt1MLyt 	TwHt1MLzt 	TwHt2FLxt 	TwHt2FLyt 	TwHt2FLzt 	TwHt1RPxi 	TwHt1TPxi 	TwHt1RDxt 	TwHt1TDxt 	GenPwr    
(s)       	(m/s)     	(m/s)     	(m/s)     	(rpm)     	(deg)     	(m)       	(m)       	(m/s^2)   	(kN·m)    	(kN·m)    	(kN·m)    	(kN)      	(kN)      	(kN)      	(kN·m)    	(kN·m)    	(kN·m)    	(kW)      	(m)       	(m)       	(kN·m)    	(kN·m)    	(kN·m)    	(kN)      	(kN)      	(kN)      	(deg)     	(m)       	(deg)     	(m)       	(kW)      
    0.0000	 1.408E+01	-3.656E+00	-3.207E-01	 2.000E+01	 7.500E+00	 0.000E+00	 0.000E+00	-1.954E+00	-3.382E+00	 1.696E+01	 1.668E-07	 2.902E+01	 9.544E-02	-2.298E+02	 1.141E+01	-1.807E+01	-1.872E-05	-3.920E-05	 0.000E+00	 0.000E+00	 4.338E-01	 1.896E+02	-1.829E+01	 1.901E+01	-4.324E-02	-9.873E+02	 0.000E+00	 0.000E+00	 0.000E+00	 0.000E+00	 1.400E+03
    0.0500	 1.419E+01	-3.069E+00	-6.618E-02	 1.977E+01	 7.500E+00	 1.352E-01	 9.798E-02	 7.595E+01	 1.623E+02	 2.268E+02	 6.083E+00	 5.409E+01	-2.160E+01	-2.393E+02	 6.745E+01	-3.339E+01	 5.986E+02	 1.239E+03	-1.153E-04	-2.601E-04	-1.392E+02	 1.867E+02	-9.201E+01	 1.732E+01	 1.387E+01	-1.000E+03	-1.182E-03	 6.532E-04	-1.182E-03	 6.532E-04	 1.343E+03
    0.1000	 1.399E+01	-3.026E+00	 6.324E-01	 1.972E+01	 7.500E+00	 4.608E-01	 3.311E-01	 4.402E+01	 2.327E+02	 5.405E+02	 4.937E+00	 8.120E+01	-5.299E+01	-2.540E+02	 1.344E+02	-5.950E+01	 8.005E+02	 1.653E+03	 1.327E-04	-1.179E-03	-1.811E+02	 2.199E+02	-1.039E+02	 1.645E+01	 1.844E+01	-1.022E+03	-4.359E-03	 1.985E-03	-4.359E-03	 1.985E-03	 1.342E+03
    0.1500	 1.362E+01	-3.464E+00	 9.863E-01	 1.983E+01	 7.500E+00	 8.816E-01	 6.375E-01	 1.385E+01	 2.460E+02	 8.836E+02	 4.312E+00	 1.184E+02	-8.761E+01	-2.639E+02	 1.606E+02	-6.475E+01	 7.951E+02	 1.651E+03	 2.197E-03	-2.762E-03	-1.525E+02	 3.113E+02	-7.354E+01	 1.718E+01	 1.779E+01	-1.045E+03	-7.603E-03	 2.819E-03	-7.603E-03	 2.819E-03	 1.367E+03
    0.2000	 1.387E+01	-3.389E+00	 1.016E+00	 1.992E+01	 7.500E+00	 1.307E+00	 9.624E-01	-1.345E+01	 2.474E+02	 1.165E+03	 4.924E+00	 1.530E+02	-1.175E+02	-2.620E+02	 1.568E+02	-3.681E+01	 7.112E+02	 1.483E+03	 7.562E-03	-4.745E-03	-6.892E+01	 4.961E+02	-2.552E+01	 2.022E+01	 1.459E+01	-1.057E+03	-8.167E-03	 2.611E-03	-8.167E-03	 2.611E-03	 1.383E+03
    0.2500	 1.388E+01	-3.561E+00	 2.512E-01	 1.989E+01	 7.500E+00	 1.660E+00	 1.246E+00	-2.713E+01	 2.697E+02	 1.366E+03	 5.400E+00	 1.778E+02	-1.385E+02	-2.497E+02	 1.644E+02	 1.944E+00	 6.346E+02	 1.322E+03	 1.710E-02	-6.804E-03	 4.879E+01	 8.104E+02	 1.623E+01	 2.557E+01	 1.087E+01	-1.057E+03	-4.714E-03	 1.959E-03	-4.714E-03	 1.959E-03	 1.377E+03
    0.3000	 1.360E+01	-3.701E+00	 1.724E-01	 1.981E+01	 7.500E+00	 1.902E+00	 1.444E+00	-2.770E+01	 3.256E+02	 1.486E+03	 4.301E+00	 1.915E+02	-1.529E+02	-2.321E+02	 1.773E+02	 2.905E+01	 6.387E+02	 1.325E+03	 3.102E-02	-8.833E-03	 1.632E+02	 1.294E+03	 3.351E+01	 3.407E+01	 8.742E+00	-1.050E+03	 1.016E-03	 2.109E-03	 1.016E-03	 2.109E-03	 1.361E+03
    0.3500	 1.353E+01	-2.951E+00	 2.568E-01	 1.979E+01	 7.500E+00	 2.028E+00	 1.546E+00	-2.324E+01	 3.910E+02	 1.531E+03	 2.510E+00	 1.960E+02	-1.680E+02	-2.114E+02	 1.725E+02	 8.086E+01	 7.037E+02	 1.458E+03	 4.915E-02	-1.099E-02	 2.499E+02	 1.973E+03	 6.246E+01	 4.716E+01	 8.394E+00	-1.042E+03	 5.223E-03	 3.983E-03	 5.223E-03	 3.983E-03	 1.356E+03
    0.4000	 1.336E+01	-3.225E+00	 4.225E-02	 1.984E+01	 7.500E+00	 2.047E+00	 1.568E+00	-1.610E+01	 4.324E+02	 1.512E+03	 1.829E+00	 1.943E+02	-1.885E+02	-1.859E+02	 1.443E+02	 1.581E+02	 7.487E+02	 1.555E+03	 7.122E-02	-1.350E-02	 3.132E+02	 2.839E+03	 1.123E+02	 6.484E+01	 8.280E+00	-1.037E+03	 5.193E-03	 7.551E-03	 5.193E-03	 7.551E-03	 1.366E+03
    0.4500	 1.289E+01	-3.108E+00	 6.244E-01	 1.990E+01	 7.500E+00	 1.974E+00	 1.531E+00	-9.456E+00	 4.409E+02	 1.437E+03	 2.432E+00	 1.895E+02	-2.114E+02	-1.552E+02	 9.368E+01	 2.299E+02	 7.411E+02	 1.544E+03	 9.694E-02	-1.641E-02	 3.737E+02	 3.844E+03	 1.488E+02	 8.575E+01	 7.270E+00	-1.034E+03	 1.742E-03	 1.190E-02	 1.742E-03	 1.190E-02	 1.379E+03
    0.5000	 1.285E+01	-3.082E+00	 5.616E-01	 1.993E+01	 7.500E+00	 1.828E+00	 1.460E+00	 3.529E+00	 4.364E+02	 1.330E+03	 2.979E+00	 1.831E+02	-2.304E+02	-1.225E+02	 5.265E+01	 2.494E+02	 7.095E+02	 1.481E+03	 1.258E-01	-1.959E-02	 4.555E+02	 4.928E+03	 1.473E+02	 1.074E+02	 5.345E+00	-1.032E+03	-1.387E-03	 1.591E-02	-1.387E-03	 1.591E-02	 1.386E+03
    0.5500	 1.312E+01	-3.668E+00	 3.619E-01	 1.993E+01	 7.500E+00	 1.644E+00	 1.383E+00	 2.345E+01	 4.425E+02	 1.220E+03	 2.615E+00	 1.769E+02	-2.417E+02	-9.424E+01	 4.447E+01	 2.135E+02	 6.980E+02	 1.457E+03	 1.572E-01	-2.288E-02	 5.731E+02	 6.041E+03	 1.163E+02	 1.284E+02	 2.968E+00	-1.030E+03	-6.861E-04	 1.897E-02	-6.861E-04	 1.897E-02	 1.386E+03
    0.6000	 1.317E+01	-3.542E+00	 5.765E-01	 1.994E+01	 7.500E+00	 1.473E+00	 1.318E+00	 3.387E+01	 4.611E+02	 1.107E+03	 2.042E+00	 1.726E+02	-2.464E+02	-7.309E+01	 2.663E+01	 1.290E+02	 7.064E+02	 1.475E+03	 1.898E-01	-2.624E-02	 7.272E+02	 7.161E+03	 3.424E+01	 1.486E+02	 3.008E-02	-1.027E+03	 4.245E-03	 2.133E-02	 4.245E-03	 2.133E-02	 1.387E+03
    0.6500	 1.250E+01	-3.323E+00	 8.584E-01	 1.995E+01	 7.500E+00	 1.353E+00	 1.283E+00	 3.884E+01	 4.782E+02	 1.023E+03	 1.919E+00	 1.728E+02	-2.495E+02	-5.576E+01	-1.277E+01	 9.956E+00	 7.084E+02	 1.480E+03	 2.225E-01	-2.975E-02	 8.979E+02	 8.269E+03	-7.327E+01	 1.676E+02	-3.501E+00	-1.026E+03	 1.057E-02	 2.376E-02	 1.057E-02	 2.376E-02	 1.389E+03
    0.7000	 1.300E+01	-3.248E+00	-4.771E-01	 1.995E+01	 7.500E+00	 1.301E+00	 1.296E+00	 3.722E+01	 4.862E+02	 9.985E+02	 2.258E+00	 1.776E+02	-2.538E+02	-3.594E+01	-4.813E+01	-1.134E+02	 6.909E+02	 1.443E+03	 2.544E-01	-3.343E-02	 1.055E+03	 9.358E+03	-1.432E+02	 1.857E+02	-7.091E+00	-1.027E+03	 1.467E-02	 2.685E-02	 1.467E-02	 2.685E-02	 1.389E+03
    0.7500	 1.331E+01	-3.774E+00	 4.000E-02	 1.992E+01	 7.500E+00	 1.316E+00	 1.370E+00	 3.815E+01	 4.871E+02	 1.041E+03	 2.203E+00	 1.856E+02	-2.573E+02	-9.692E+00	-5.289E+01	-1.995E+02	 6.703E+02	 1.399E+03	 2.850E-01	-3.713E-02	 1.176E+03	 1.042E+04	-1.356E+02	 2.037E+02	-9.855E+00	-1.029E+03	 1.495E-02	 3.054E-02	 1.495E-02	 3.054E-02	 1.384E+03
    0.8000	 1.248E+01	-3.906E+00	 1.850E-01	 1.989E+01	 7.500E+00	 1.391E+00	 1.493E+00	 2.133E+01	 4.945E+02	 1.125E+03	 1.999E+00	 1.966E+02	-2.572E+02	 2.167E+01	-3.591E+01	-2.309E+02	 6.766E+02	 1.409E+03	 3.141E-01	-4.055E-02	 1.258E+03	 1.145E+04	-7.924E+01	 2.219E+02	-1.119E+01	-1.031E+03	 1.276E-02	 3.423E-02	 1.276E-02	 3.423E-02	 1.378E+03
    0.8500	 1.230E+01	-3.268E+00	 2.021E-01	 1.989E+01	 7.500E+00	 1.491E+00	 1.625E+00	 9.537E+00	 5.024E+02	 1.219E+03	 1.801E+00	 2.098E+02	-2.517E+02	 5.443E+01	-1.382E+01	-2.456E+02	 7.068E+02	 1.472E+03	 3.418E-01	-4.341E-02	 1.320E+03	 1.241E+04	-1.154E+01	 2.393E+02	-1.155E+01	-1.031E+03	 1.095E-02	 3.730E-02	 1.095E-02	 3.730E-02	 1.377E+03
    0.9000	 1.263E+01	-2.918E+00	-2.111E-01	 1.992E+01	 7.500E+00	 1.586E+00	 1.727E+00	 5.833E+00	 4.975E+02	 1.303E+03	 1.568E+00	 2.239E+02	-2.426E+02	 8.544E+01	 5.281E+00	-2.929E+02	 7.346E+02	 1.532E+03	 3.680E-01	-4.567E-02	 1.385E+03	 1.330E+04	 6.090E+01	 2.549E+02	-1.188E+01	-1.032E+03	 1.160E-02	 3.957E-02	 1.160E-02	 3.957E-02	 1.383E+03
    0.9500	 1.324E+01	-2.355E+00	-2.625E-01	 1.996E+01	 7.500E+00	 1.664E+00	 1.788E+00	 6.096E-01	 4.710E+02	 1.348E+03	 1.885E+00	 2.362E+02	-2.316E+02	 1.129E+02	-5.637E+00	-3.493E+02	 7.355E+02	 1.537E+03	 3.926E-01	-4.751E-02	 1.465E+03	 1.412E+04	 1.092E+02	 2.691E+02	-1.305E+01	-1.034E+03	 1.459E-02	 4.132E-02	 1.459E-02	 4.132E-02	 1.392E+03
    1.0000	 1.352E+01	-2.257E+00	-2.899E-01	 1.999E+01	 7.500E+00	 1.711E+00	 1.813E+00	 3.397E+00	 4.269E+02	 1.359E+03	 2.665E+00	 2.448E+02	-2.204E+02	 1.384E+02	-2.898E+01	-3.880E+02	 7.100E+02	 1.486E+03	 4.151E-01	-4.927E-02	 1.553E+03	 1.488E+04	 1.441E+02	 2.828E+02	-1.496E+01	-1.037E+03	 1.803E-02	 4.309E-02	 1.803E-02	 4.309E-02	 1.398E+03
    1.0500	 1.349E+01	-1.649E+00	 4.344E-02	 1.998E+01	 7.500E+00	 1.726E+00	 1.815E+00	 3.141E+00	 3.792E+02	 1.339E+03	 3.298E+00	 2.477E+02	-2.077E+02	 1.620E+02	-5.969E+01	-3.930E+02	 6.867E+02	 1.437E+03	 4.354E-01	-5.116E-02	 1.633E+03	 1.558E+04	 1.576E+02	 2.961E+02	-1.687E+01	-1.041E+03	 1.995E-02	 4.526E-02	 1.995E-02	 4.526E-02	 1.396E+03
    1.1000	 1.371E+01	-1.576E+00	 2.717E-01	 1.996E+01	 7.500E+00	 1.708E+00	 1.822E+00	 1.457E+00	 3.412E+02	 1.305E+03	 3.885E+00	 2.458E+02	-1.921E+02	 1.832E+02	-7.601E+01	-3.517E+02	 6.932E+02	 1.449E+03	 4.529E-01	-5.318E-02	 1.693E+03	 1.622E+04	 1.502E+02	 3.090E+02	-1.802E+01	-1.043E+03	 1.970E-02	 4.775E-02	 1.970E-02	 4.775E-02	 1.392E+03
    1.1500	 1.443E+01	-1.601E+00	 3.356E-01	 1.997E+01	 7.500E+00	 1.658E+00	 1.839E+00	 1.266E+01	 3.098E+02	 1.285E+03	 4.301E+00	 2.440E+02	-1.724E+02	 2.002E+02	-6.854E+01	-2.714E+02	 7.244E+02	 1.515E+03	 4.674E-01	-5.510E-02	 1.735E+03	 1.675E+04	 1.212E+02	 3.204E+02	-1.847E+01	-1.041E+03	 1.827E-02	 5.012E-02	 1.827E-02	 5.012E-02	 1.394E+03
    1.2000	 1.414E+01	-1.214E+00	 1.564E-01	 2.001E+01	 7.500E+00	 1.599E+00	 1.848E+00	 1.966E+01	 2.759E+02	 1.269E+03	 4.436E+00	 2.440E+02	-1.491E+02	 2.125E+02	-7.024E+01	-2.088E+02	 7.500E+02	 1.572E+03	 4.786E-01	-5.663E-02	 1.770E+03	 1.714E+04	 8.719E+01	 3.285E+02	-1.885E+01	-1.037E+03	 1.734E-02	 5.182E-02	 1.734E-02	 5.182E-02	 1.403E+03
    1.2500	 1.381E+01	-1.862E+00	-2.785E-01	 2.006E+01	 7.500E+00	 1.554E+00	 1.844E+00	 2.253E+01	 2.341E+02	 1.231E+03	 4.835E+00	 2.446E+02	-1.237E+02	 2.206E+02	-1.153E+02	-1.926E+02	 7.492E+02	 1.574E+03	 4.863E-01	-5.753E-02	 1.803E+03	 1.738E+04	 6.471E+01	 3.322E+02	-1.956E+01	-1.030E+03	 1.801E-02	 5.252E-02	 1.801E-02	 5.252E-02	 1.414E+03
    1.3000	 1.343E+01	-1.698E+00	-7.454E-01	 2.010E+01	 7.500E+00	 1.523E+00	 1.836E+00	 1.692E+01	 1.906E+02	 1.191E+03	 5.405E+00	 2.465E+02	-9.864E+01	 2.269E+02	-1.700E+02	-1.995E+02	 7.283E+02	 1.533E+03	 4.906E-01	-5.777E-02	 1.829E+03	 1.747E+04	 6.560E+01	 3.328E+02	-2.039E+01	-1.025E+03	 1.999E-02	 5.229E-02	 1.999E-02	 5.229E-02	 1.421E+03
    1.3500	 1.249E+01	-1.676E+00	-3.082E-01	 2.011E+01	 7.500E+00	 1.499E+00	 1.833E+00	 1.756E+01	 1.514E+02	 1.166E+03	 5.932E+00	 2.483E+02	-7.405E+01	 2.334E+02	-2.027E+02	-1.980E+02	 7.068E+02	 1.488E+03	 4.911E-01	-5.746E-02	 1.835E+03	 1.743E+04	 7.703E+01	 3.317E+02	-2.083E+01	-1.023E+03	 2.186E-02	 5.157E-02	 2.186E-02	 5.157E-02	 1.423E+03
    1.4000	 1.295E+01	-9.714E-01	-5.993E-01	 2.010E+01	 7.500E+00	 1.477E+00	 1.828E+00	 1.280E+01	 1.213E+02	 1.161E+03	 5.941E+00	 2.491E+02	-4.923E+01	 2.420E+02	-2.095E+02	-1.779E+02	 7.022E+02	 1.478E+03	 4.878E-01	-5.677E-02	 1.812E+03	 1.729E+04	 8.319E+01	 3.293E+02	-2.043E+01	-1.025E+03	 2.219E-02	 5.094E-02	 2.219E-02	 5.094E-02	 1.421E+03
    1.4500	 1.280E+01	-1.390E+00	-5.593E-01	 2.009E+01	 7.500E+00	 1.450E+00	 1.811E+00	 1.488E+01	 9.236E+01	 1.157E+03	 5.653E+00	 2.476E+02	-2.258E+01	 2.523E+02	-2.089E+02	-1.374E+02	 7.140E+02	 1.502E+03	 4.807E-01	-5.577E-02	 1.760E+03	 1.704E+04	 7.266E+01	 3.253E+02	-1.923E+01	-1.031E+03	 2.058E-02	 5.060E-02	 2.058E-02	 5.060E-02	 1.420E+03
    1.5000	 1.269E+01	-2.016E+00	-2.374E-01	 2.011E+01	 7.500E+00	 1.421E+00	 1.771E+00	 1.595E+01	 5.903E+01	 1.134E+03	 5.633E+00	 2.417E+02	 5.534E+00	 2.600E+02	-2.109E+02	-5.635E+01	 7.281E+02	 1.533E+03	 4.701E-01	-5.444E-02	 1.691E+03	 1.666E+04	 1.907E+01	 3.191E+02	-1.779E+01	-1.037E+03	 1.798E-02	 5.029E-02	 1.798E-02	 5.029E-02	 1.422E+03
    1.5500	 1.203E+01	-1.928E+00	-3.128E-01	 2.013E+01	 7.500E+00	 1.402E+00	 1.703E+00	 2.259E+01	 1.316E+01	 1.100E+03	 6.021E+00	 2.339E+02	 3.357E+01	 2.621E+02	-2.078E+02	 2.084E+01	 7.341E+02	 1.547E+03	 4.560E-01	-5.268E-02	 1.617E+03	 1.617E+04	-3.492E+01	 3.103E+02	-1.641E+01	-1.040E+03	 1.592E-02	 4.943E-02	 1.592E-02	 4.943E-02	 1.427E+03
    1.6000	 1.232E+01	-1.893E+00	-5.582E-01	 2.015E+01	 7.500E+00	 1.404E+00	 1.628E+00	 2.036E+01	-4.504E+01	 1.070E+03	 6.528E+00	 2.267E+02	 5.957E+01	 2.571E+02	-1.978E+02	 9.491E+01	 7.341E+02	 1.549E+03	 4.388E-01	-5.044E-02	 1.541E+03	 1.553E+04	-9.203E+01	 2.985E+02	-1.512E+01	-1.039E+03	 1.534E-02	 4.763E-02	 1.534E-02	 4.763E-02	 1.433E+03
    1.6500	 1.293E+01	-1.727E+00	-1.196E+00	 2.017E+01	 7.500E+00	 1.423E+00	 1.566E+00	 1.531E+01	-1.114E+02	 1.066E+03	 7.224E+00	 2.239E+02	 8.322E+01	 2.460E+02	-1.860E+02	 1.873E+02	 7.324E+02	 1.547E+03	 4.185E-01	-4.775E-02	 1.461E+03	 1.477E+04	-1.677E+02	 2.837E+02	-1.377E+01	-1.035E+03	 1.589E-02	 4.493E-02	 1.589E-02	 4.493E-02	 1.437E+03
    1.7000	 1.297E+01	-1.521E+00	-1.251E+00	 2.019E+01	 7.500E+00	 1.447E+00	 1.518E+00	 1.775E+01	-1.797E+02	 1.096E+03	 8.172E+00	 2.266E+02	 1.062E+02	 2.319E+02	-1.794E+02	 2.975E+02	 7.318E+02	 1.547E+03	 3.955E-01	-4.479E-02	 1.370E+03	 1.390E+04	-2.488E+02	 2.660E+02	-1.215E+01	-1.030E+03	 1.622E-02	 4.176E-02	 1.622E-02	 4.176E-02	 1.441E+03
    1.7500	 1.142E+01	-1.868E+00	-1.401E+00	 2.021E+01	 7.500E+00	 1.476E+00	 1.487E+00	 1.243E+01	-2.405E+02	 1.135E+03	 9.220E+00	 2.299E+02	 1.304E+02	 2.159E+02	-1.909E+02	 4.053E+02	 7.304E+02	 1.546E+03	 3.703E-01	-4.174E-02	 1.262E+03	 1.296E+04	-2.993E+02	 2.463E+02	-1.014E+01	-1.028E+03	 1.514E-02	 3.861E-02	 1.514E-02	 3.861E-02	 1.444E+03
    1.8000	 1.127E+01	-1.736E+00	-1.587E+00	 2.022E+01	 7.500E+00	 1.500E+00	 1.490E+00	 5.463E+00	-2.888E+02	 1.181E+03	 1.009E+01	 2.319E+02	 1.562E+02	 1.992E+02	-1.930E+02	 4.890E+02	 7.383E+02	 1.564E+03	 3.437E-01	-3.878E-02	 1.143E+03	 1.199E+04	-3.137E+02	 2.265E+02	-7.651E+00	-1.029E+03	 1.254E-02	 3.568E-02	 1.254E-02	 3.568E-02	 1.448E+03
    1.8500	 1.129E+01	-1.609E+00	-9.246E-01	 2.025E+01	 7.500E+00	 1.503E+00	 1.529E+00	 9.780E+00	-3.237E+02	 1.221E+03	 1.065E+01	 2.310E+02	 1.815E+02	 1.818E+02	-1.831E+02	 5.601E+02	 7.523E+02	 1.595E+03	 3.165E-01	-3.600E-02	 1.025E+03	 1.101E+04	-3.140E+02	 2.070E+02	-5.102E+00	-1.032E+03	 9.439E-03	 3.292E-02	 9.439E-03	 3.292E-02	 1.454E+03
    1.9000	 1.186E+01	-1.778E+00	-1.488E+00	 2.029E+01	 7.500E+00	 1.493E+00	 1.578E+00	 1.134E+01	-3.487E+02	 1.219E+03	 1.092E+01	 2.281E+02	 2.047E+02	 1.641E+02	-2.151E+02	 6.110E+02	 7.671E+02	 1.630E+03	 2.895E-01	-3.346E-02	 9.236E+02	 1.004E+04	-2.654E+02	 1.874E+02	-2.795E+00	-1.037E+03	 7.201E-03	 3.016E-02	 7.201E-03	 3.016E-02	 1.463E+03
    1.9500	 1.244E+01	-1.676E+00	-1.784E+00	 2.035E+01	 7.500E+00	 1.476E+00	 1.615E+00	 8.693E+00	-3.710E+02	 1.170E+03	 1.100E+01	 2.247E+02	 2.244E+02	 1.461E+02	-3.041E+02	 6.284E+02	 7.752E+02	 1.652E+03	 2.632E-01	-3.118E-02	 8.454E+02	 9.096E+03	-1.460E+02	 1.684E+02	-9.995E-01	-1.043E+03	 6.530E-03	 2.721E-02	 6.530E-03	 2.721E-02	 1.475E+03
    2.0000	 1.221E+01	-2.365E+00	-2.072E+00	 2.040E+01	 7.500E+00	 1.446E+00	 1.631E+00	 9.388E+00	-3.938E+02	 1.112E+03	 1.111E+01	 2.218E+02	 2.397E+02	 1.269E+02	-3.881E+02	 6.166E+02	 7.716E+02	 1.648E+03	 2.383E-01	-2.924E-02	 7.902E+02	 8.206E+03	-8.195E+00	 1.513E+02	 1.041E-01	-1.046E+03	 7.011E-03	 2.416E-02	 7.011E-03	 2.416E-02	 1.486E+03
    2.0500	 1.253E+01	-2.659E+00	-2.032E+00	 2.044E+01	 7.500E+00	 1.403E+00	 1.631E+00	 1.503E+01	-4.153E+02	 1.077E+03	 1.119E+01	 2.177E+02	 2.507E+02	 1.053E+02	-4.045E+02	 5.860E+02	 7.625E+02	 1.632E+03	 2.151E-01	-2.766E-02	 7.485E+02	 7.397E+03	 8.126E+01	 1.368E+02	 7.316E-01	-1.047E+03	 7.555E-03	 2.132E-02	 7.555E-03	 2.132E-02	 1.494E+03
    2.1000	 1.300E+01	-2.927E+00	-1.899E+00	 2.046E+01	 7.500E+00	 1.361E+00	 1.619E+00	 1.908E+01	-4.308E+02	 1.067E+03	 1.135E+01	 2.104E+02	 2.592E+02	 8.067E+01	-3.463E+02	 5.162E+02	 7.585E+02	 1.625E+03	 1.938E-01	-2.640E-02	 7.090E+02	 6.686E+03	 1.114E+02	 1.257E+02	 1.333E+00	-1.045E+03	 7.263E-03	 1.908E-02	 7.263E-03	 1.908E-02	 1.500E+03
    2.1500	 1.306E+01	-3.431E+00	-1.754E+00	 2.049E+01	 7.500E+00	 1.331E+00	 1.599E+00	 2.343E+01	-4.390E+02	 1.072E+03	 1.136E+01	 2.008E+02	 2.661E+02	 5.331E+01	-2.521E+02	 4.263E+02	 7.595E+02	 1.630E+03	 1.746E-01	-2.541E-02	 6.684E+02	 6.069E+03	 9.743E+01	 1.168E+02	 2.012E+00	-1.045E+03	 6.028E-03	 1.764E-02	 6.028E-03	 1.764E-02	 1.502E+03
    2.2000	 1.302E+01	-3.621E+00	-2.028E+00	 2.052E+01	 7.500E+00	 1.324E+00	 1.573E+00	 2.372E+01	-4.384E+02	 1.077E+03	 1.123E+01	 1.928E+02	 2.715E+02	 2.373E+01	-1.873E+02	 3.578E+02	 7.641E+02	 1.642E+03	 1.573E-01	-2.457E-02	 6.290E+02	 5.525E+03	 9.136E+01	 1.086E+02	 2.810E+00	-1.045E+03	 4.533E-03	 1.676E-02	 4.533E-03	 1.676E-02	 1.504E+03
    2.2500	 1.305E+01	-3.060E+00	-2.289E+00	 2.055E+01	 7.500E+00	 1.339E+00	 1.538E+00	 1.726E+01	-4.310E+02	 1.070E+03	 1.106E+01	 1.877E+02	 2.738E+02	-6.791E+00	-1.669E+02	 3.006E+02	 7.660E+02	 1.649E+03	 1.424E-01	-2.382E-02	 5.981E+02	 5.052E+03	 1.132E+02	 1.013E+02	 3.496E+00	-1.046E+03	 3.633E-03	 1.591E-02	 3.633E-03	 1.591E-02	 1.507E+03
    2.3000	 1.334E+01	-3.237E+00	-2.128E+00	 2.058E+01	 7.500E+00	 1.361E+00	 1.490E+00	 1.120E+01	-4.171E+02	 1.061E+03	 1.086E+01	 1.852E+02	 2.708E+02	-3.606E+01	-1.527E+02	 2.079E+02	 7.565E+02	 1.631E+03	 1.300E-01	-2.319E-02	 5.827E+02	 4.657E+03	 1.194E+02	 9.604E+01	 3.636E+00	-1.045E+03	 3.715E-03	 1.472E-02	 3.715E-03	 1.472E-02	 1.509E+03
    2.3500	 1.331E+01	-3.110E+00	-1.696E+00	 2.060E+01	 7.500E+00	 1.374E+00	 1.446E+00	 9.624E+00	-3.957E+02	 1.062E+03	 1.068E+01	 1.828E+02	 2.631E+02	-6.328E+01	-1.139E+02	 1.336E+02	 7.420E+02	 1.600E+03	 1.201E-01	-2.272E-02	 5.803E+02	 4.334E+03	 8.122E+01	 9.155E+01	 3.339E+00	-1.042E+03	 4.497E-03	 1.332E-02	 4.497E-03	 1.332E-02	 1.510E+03
    2.4000	 1.345E+01	-3.665E+00	-2.237E+00	 2.060E+01	 7.500E+00	 1.372E+00	 1.412E+00	 1.209E+01	-3.663E+02	 1.077E+03	 1.055E+01	 1.797E+02	 2.530E+02	-8.960E+01	-5.099E+01	 1.424E+02	 7.322E+02	 1.579E+03	 1.128E-01	-2.244E-02	 5.827E+02	 4.077E+03	 3.286E+01	 8.647E+01	 3.028E+00	-1.040E+03	 5.284E-03	 1.216E-02	 5.284E-03	 1.216E-02	 1.510E+03
    2.4500	 1.365E+01	-3.369E+00	-2.577E+00	 2.059E+01	 7.500E+00	 1.361E+00	 1.377E+00	 1.565E+01	-3.320E+02	 1.088E+03	 1.019E+01	 1.743E+02	 2.411E+02	-1.152E+02	 1.670E+01	 1.867E+02	 7.299E+02	 1.574E+03	 1.078E-01	-2.239E-02	 5.851E+02	 3.903E+03	 1.084E+00	 8.224E+01	 2.862E+00	-1.038E+03	 5.467E-03	 1.153E-02	 5.467E-03	 1.153E-02	 1.509E+03
    2.5000	 1.346E+01	-2.797E+00	-2.024E+00	 2.058E+01	 7.500E+00	 1.351E+00	 1.318E+00	 2.061E+01	-2.938E+02	 1.086E+03	 9.752E+00	 1.692E+02	 2.267E+02	-1.397E+02	 5.789E+01	 2.048E+02	 7.320E+02	 1.578E+03	 1.052E-01	-2.256E-02	 5.867E+02	 3.827E+03	-6.649E+00	 8.036E+01	 2.814E+00	-1.037E+03	 4.965E-03	 1.141E-02	 4.965E-03	 1.141E-02	 1.509E+03
    2.5500	 1.370E+01	-2.602E+00	-1.740E+00	 2.058E+01	 7.500E+00	 1.353E+00	 1.246E+00	 2.498E+01	-2.552E+02	 1.065E+03	 9.449E+00	 1.671E+02	 2.097E+02	-1.628E+02	 5.206E+01	 1.907E+02	 7.386E+02	 1.592E+03	 1.049E-01	-2.286E-02	 5.894E+02	 3.846E+03	 1.066E+01	 8.114E+01	 2.874E+00	-1.036E+03	 4.259E-03	 1.164E-02	 4.259E-03	 1.164E-02	 1.509E+03
    2.6000	 1.330E+01	-2.275E+00	-1.386E+00	 2.058E+01	 7.500E+00	 1.377E+00	 1.195E+00	 2.642E+01	-2.164E+02	 1.047E+03	 9.416E+00	 1.637E+02	 1.897E+02	-1.839E+02	 5.598E+01	 1.519E+02	 7.409E+02	 1.597E+03	 1.069E-01	-2.321E-02	 5.987E+02	 3.946E+03	 1.750E+00	 8.373E+01	 2.729E+00	-1.034E+03	 3.970E-03	 1.205E-02	 3.970E-03	 1.205E-02	 1.509E+03
    2.6500	 1.352E+01	-2.151E+00	-2.106E+00	 2.059E+01	 7.500E+00	 1.425E+00	 1.187E+00	 3.077E+01	-1.775E+02	 1.071E+03	 9.489E+00	 1.602E+02	 1.676E+02	-2.033E+02	 1.134E+02	 1.316E+02	 7.387E+02	 1.593E+03	 1.110E-01	-2.359E-02	 6.160E+02	 4.104E+03	-3.172E+01	 8.634E+01	 2.360E+00	-1.033E+03	 4.401E-03	 1.255E-02	 4.401E-03	 1.255E-02	 1.509E+03
    2.7000	 1.332E+01	-2.043E+00	-1.654E+00	 2.059E+01	 7.500E+00	 1.506E+00	 1.211E+00	 4.063E+01	-1.371E+02	 1.157E+03	 9.575E+00	 1.640E+02	 1.445E+02	-2.215E+02	 1.956E+02	 1.457E+02	 7.442E+02	 1.605E+03	 1.171E-01	-2.405E-02	 6.377E+02	 4.310E+03	-4.487E+01	 8.879E+01	 2.114E+00	-1.035E+03	 5.320E-03	 1.305E-02	 5.320E-03	 1.305E-02	 1.509E+03
    2.7500	 1.282E+01	-1.968E+00	-1.426E+00	 2.061E+01	 7.500E+00	 1.638E+00	 1.249E+00	 4.096E+01	-9.383E+01	 1.280E+03	 9.603E+00	 1.755E+02	 1.199E+02	-2.380E+02	 2.575E+02	 1.698E+02	 7.536E+02	 1.626E+03	 1.251E-01	-2.470E-02	 6.627E+02	 4.582E+03	-2.383E+01	 9.241E+01	 1.923E+00	-1.038E+03	 6.119E-03	 1.355E-02	 6.119E-03	 1.355E-02	 1.510E+03
    2.8000	 1.304E+01	-2.724E+00	-1.750E+00	 2.063E+01	 7.500E+00	 1.815E+00	 1.290E+00	 1.813E+01	-4.946E+01	 1.403E+03	 9.683E+00	 1.905E+02	 9.342E+01	-2.516E+02	 2.844E+02	 1.619E+02	 7.597E+02	 1.641E+03	 1.354E-01	-2.563E-02	 6.931E+02	 4.941E+03	-5.780E+00	 9.842E+01	 1.525E+00	-1.041E+03	 6.347E-03	 1.419E-02	 6.347E-03	 1.419E-02	 1.512E+03
    2.8500	 1.226E+01	-3.161E+00	-1.192E+00	 2.065E+01	 7.500E+00	 1.985E+00	 1.335E+00	 2.378E+00	-6.702E+00	 1.531E+03	 9.771E+00	 2.035E+02	 6.506E+01	-2.619E+02	 3.368E+02	 1.408E+02	 7.571E+02	 1.638E+03	 1.481E-01	-2.683E-02	 7.312E+02	 5.388E+03	-9.709E-01	 1.057E+02	 7.686E-01	-1.043E+03	 6.132E-03	 1.521E-02	 6.132E-03	 1.521E-02	 1.514E+03
    2.9000	 1.275E+01	-2.662E+00	-1.376E+00	 2.068E+01	 7.500E+00	 2.105E+00	 1.383E+00	-1.410E+00	 3.942E+01	 1.648E+03	 9.698E+00	 2.104E+02	 3.576E+01	-2.687E+02	 4.310E+02	 1.348E+02	 7.556E+02	 1.636E+03	 1.634E-01	-2.825E-02	 7.771E+02	 5.925E+03	 2.052E+01	 1.140E+02	-8.761E-02	-1.045E+03	 6.070E-03	 1.674E-02	 6.070E-03	 1.674E-02	 1.516E+03
    2.9500	 1.273E+01	-2.606E+00	-1.224E+00	 2.070E+01	 7.500E+00	 2.161E+00	 1.432E+00	-1.565E+00	 8.990E+01	 1.711E+03	 9.274E+00	 2.133E+02	 6.572E+00	-2.715E+02	 4.975E+02	 1.766E+02	 7.601E+02	 1.648E+03	 1.813E-01	-2.981E-02	 8.303E+02	 6.563E+03	 1.063E+02	 1.248E+02	-8.604E-01	-1.046E+03	 6.669E-03	 1.865E-02	 6.669E-03	 1.865E-02	 1.517E+03
    3.0000	 1.324E+01	-2.219E+00	-8.230E-01	 2.073E+01	 7.500E+00	 2.152E+00	 1.473E+00	 7.600E+00	 1.383E+02	 1.701E+03	 8.442E+00	 2.144E+02	-2.136E+01	-2.693E+02	 4.933E+02	 2.217E+02	 7.672E+02	 1.666E+03	 2.015E-01	-3.148E-02	 8.917E+02	 7.301E+03	 1.992E+02	 1.391E+02	-1.756E+00	-1.045E+03	 7.895E-03	 2.081E-02	 7.895E-03	 2.081E-02	 1.520E+03
    3.0500	 1.268E+01	-2.644E+00	-3.037E-01	 2.077E+01	 7.500E+00	 2.100E+00	 1.486E+00	 1.293E+01	 1.813E+02	 1.623E+03	 7.416E+00	 2.146E+02	-4.834E+01	-2.628E+02	 4.043E+02	 2.385E+02	 7.654E+02	 1.665E+03	 2.236E-01	-3.325E-02	 9.597E+02	 8.124E+03	 2.457E+02	 1.568E+02	-3.032E+00	-1.042E+03	 9.273E-03	 2.322E-02	 9.273E-03	 2.322E-02	 1.522E+03
    3.1000	 1.285E+01	-2.777E+00	-3.607E-01	 2.080E+01	 7.500E+00	 2.022E+00	 1.455E+00	 1.369E+01	 2.202E+02	 1.521E+03	 6.606E+00	 2.162E+02	-7.509E+01	-2.539E+02	 2.742E+02	 2.114E+02	 7.579E+02	 1.651E+03	 2.469E-01	-3.506E-02	 1.029E+03	 8.998E+03	 2.189E+02	 1.760E+02	-4.550E+00	-1.039E+03	 1.033E-02	 2.598E-02	 1.033E-02	 2.598E-02	 1.525E+03
    3.1500	 1.264E+01	-3.100E+00	 7.990E-02	 2.081E+01	 7.500E+00	 1.925E+00	 1.397E+00	 1.952E+01	 2.590E+02	 1.442E+03	 6.063E+00	 2.166E+02	-1.024E+02	-2.434E+02	 1.898E+02	 1.730E+02	 7.457E+02	 1.625E+03	 2.707E-01	-3.686E-02	 1.094E+03	 9.884E+03	 1.751E+02	 1.944E+02	-6.080E+00	-1.039E+03	 1.095E-02	 2.908E-02	 1.095E-02	 2.908E-02	 1.526E+03
    3.2000	 1.242E+01	-2.525E+00	 8.447E-01	 2.082E+01	 7.500E+00	 1.825E+00	 1.334E+00	 2.967E+01	 3.030E+02	 1.396E+03	 5.490E+00	 2.145E+02	-1.295E+02	-2.311E+02	 1.834E+02	 1.693E+02	 7.368E+02	 1.606E+03	 2.946E-01	-3.856E-02	 1.152E+03	 1.075E+04	 1.834E+02	 2.114E+02	-7.309E+00	-1.039E+03	 1.136E-02	 3.217E-02	 1.136E-02	 3.217E-02	 1.526E+03
    3.2500	 1.225E+01	-3.044E+00	 6.667E-01	 2.082E+01	 7.500E+00	 1.750E+00	 1.265E+00	 3.443E+01	 3.534E+02	 1.370E+03	 4.727E+00	 2.120E+02	-1.545E+02	-2.162E+02	 2.177E+02	 2.045E+02	 7.344E+02	 1.601E+03	 3.180E-01	-4.011E-02	 1.203E+03	 1.159E+04	 2.403E+02	 2.277E+02	-8.224E+00	-1.040E+03	 1.186E-02	 3.489E-02	 1.186E-02	 3.489E-02	 1.526E+03
    3.3000	 1.264E+01	-3.358E+00	 8.105E-01	 2.082E+01	 7.500E+00	 1.711E+00	 1.193E+00	 2.729E+01	 4.018E+02	 1.349E+03	 3.812E+00	 2.120E+02	-1.757E+02	-1.979E+02	 2.407E+02	 2.215E+02	 7.371E+02	 1.607E+03	 3.402E-01	-4.147E-02	 1.250E+03	 1.237E+04	 2.699E+02	 2.429E+02	-9.038E+00	-1.039E+03	 1.256E-02	 3.709E-02	 1.256E-02	 3.709E-02	 1.526E+03
    3.3500	 1.297E+01	-3.044E+00	 1.704E+00	 2.082E+01	 7.500E+00	 1.699E+00	 1.132E+00	 1.743E+01	 4.389E+02	 1.342E+03	 3.192E+00	 2.138E+02	-1.936E+02	-1.768E+02	 2.615E+02	 1.744E+02	 7.380E+02	 1.609E+03	 3.607E-01	-4.258E-02	 1.291E+03	 1.307E+04	 2.515E+02	 2.556E+02	-9.863E+00	-1.036E+03	 1.335E-02	 3.893E-02	 1.335E-02	 3.893E-02	 1.526E+03
    3.4000	 1.355E+01	-2.984E+00	 1.270E+00	 2.082E+01	 7.500E+00	 1.692E+00	 1.104E+00	 1.375E+01	 4.623E+02	 1.359E+03	 3.031E+00	 2.172E+02	-2.096E+02	-1.537E+02	 2.904E+02	 8.303E+01	 7.343E+02	 1.601E+03	 3.789E-01	-4.342E-02	 1.323E+03	 1.367E+04	 2.229E+02	 2.657E+02	-1.059E+01	-1.035E+03	 1.401E-02	 4.061E-02	 1.401E-02	 4.061E-02	 1.526E+03
    3.4500	 1.331E+01	-2.744E+00	 7.420E-01	 2.081E+01	 7.500E+00	 1.682E+00	 1.127E+00	 1.341E+01	 4.733E+02	 1.381E+03	 3.100E+00	 2.210E+02	-2.234E+02	-1.286E+02	 3.044E+02	-2.125E+01	 7.296E+02	 1.590E+03	 3.947E-01	-4.396E-02	 1.342E+03	 1.419E+04	 1.939E+02	 2.740E+02	-1.107E+01	-1.033E+03	 1.434E-02	 4.219E-02	 1.434E-02	 4.219E-02	 1.526E+03
    3.5000	 1.245E+01	-2.879E+00	 8.550E-01	 2.080E+01	 7.500E+00	 1.672E+00	 1.215E+00	 2.362E+01	 4.772E+02	 1.395E+03	 3.157E+00	 2.249E+02	-2.349E+02	-1.020E+02	 2.933E+02	-1.099E+02	 7.308E+02	 1.592E+03	 4.078E-01	-4.420E-02	 1.347E+03	 1.462E+04	 1.682E+02	 2.809E+02	-1.115E+01	-1.032E+03	 1.432E-02	 4.358E-02	 1.432E-02	 4.358E-02	 1.525E+03
    3.5500	 1.265E+01	-3.111E+00	 5.891E-01	 2.080E+01	 7.500E+00	 1.675E+00	 1.363E+00	 1.710E+01	 4.814E+02	 1.380E+03	 3.401E+00	 2.284E+02	-2.438E+02	-7.403E+01	 2.256E+02	-1.843E+02	 7.414E+02	 1.615E+03	 4.183E-01	-4.416E-02	 1.340E+03	 1.497E+04	 1.075E+02	 2.867E+02	-1.088E+01	-1.031E+03	 1.405E-02	 4.465E-02	 1.405E-02	 4.465E-02	 1.525E+03
    3.6000	 1.252E+01	-3.148E+00	-1.769E-01	 2.081E+01	 7.500E+00	 1.683E+00	 1.550E+00	 1.690E+01	 4.824E+02	 1.366E+03	 3.984E+00	 2.337E+02	-2.503E+02	-4.532E+01	 1.307E+02	-2.719E+02	 7.549E+02	 1.645E+03	 4.260E-01	-4.388E-02	 1.325E+03	 1.520E+04	 2.727E+01	 2.900E+02	-1.041E+01	-1.031E+03	 1.370E-02	 4.534E-02	 1.370E-02	 4.534E-02	 1.526E+03
    3.6500	 1.304E+01	-2.834E+00	 1.313E-01	 2.084E+01	 7.500E+00	 1.694E+00	 1.752E+00	 2.509E+01	 4.803E+02	 1.390E+03	 4.469E+00	 2.425E+02	-2.552E+02	-1.605E+01	 5.334E+01	-3.764E+02	 7.663E+02	 1.672E+03	 4.311E-01	-4.343E-02	 1.305E+03	 1.534E+04	-2.288E+01	 2.905E+02	-9.829E+00	-1.033E+03	 1.339E-02	 4.565E-02	 1.339E-02	 4.565E-02	 1.528E+03
    3.7000	 1.308E+01	-3.420E+00	 3.037E-01	 2.088E+01	 7.500E+00	 1.727E+00	 1.956E+00	 3.607E+01	 4.779E+02	 1.451E+03	 4.561E+00	 2.528E+02	-2.582E+02	 1.335E+01	 2.037E+01	-4.774E+02	 7.703E+02	 1.684E+03	 4.338E-01	-4.289E-02	 1.283E+03	 1.538E+04	-8.779E+00	 2.893E+02	-9.259E+00	-1.037E+03	 1.315E-02	 4.557E-02	 1.315E-02	 4.557E-02	 1.531E+03
    3.7500	 1.265E+01	-3.236E+00	 3.117E-01	 2.092E+01	 7.500E+00	 1.800E+00	 2.143E+00	 2.752E+01	 4.792E+02	 1.508E+03	 3.997E+00	 2.604E+02	-2.582E+02	 4.203E+01	 1.431E+00	-5.398E+02	 7.707E+02	 1.688E+03	 4.346E-01	-4.235E-02	 1.263E+03	 1.537E+04	 3.251E+01	 2.879E+02	-8.786E+00	-1.040E+03	 1.293E-02	 4.521E-02	 1.293E-02	 4.521E-02	 1.533E+03
    3.8000	 1.311E+01	-2.956E+00	-6.483E-01	 2.096E+01	 7.500E+00	 1.891E+00	 2.283E+00	 1.355E+01	 4.781E+02	 1.524E+03	 3.578E+00	 2.647E+02	-2.542E+02	 6.906E+01	-5.113E+01	-5.489E+02	 7.698E+02	 1.689E+03	 4.337E-01	-4.184E-02	 1.246E+03	 1.531E+04	 3.708E+01	 2.867E+02	-8.529E+00	-1.043E+03	 1.270E-02	 4.480E-02	 1.270E-02	 4.480E-02	 1.536E+03
    3.8500	 1.254E+01	-2.743E+00	-1.221E+00	 2.100E+01	 7.500E+00	 1.965E+00	 2.349E+00	 4.835E+00	 4.709E+02	 1.527E+03	 3.335E+00	 2.677E+02	-2.472E+02	 9.488E+01	-1.037E+02	-5.229E+02	 7.720E+02	 1.698E+03	 4.311E-01	-4.130E-02	 1.227E+03	 1.522E+04	 3.081E+01	 2.851E+02	-8.243E+00	-1.044E+03	 1.247E-02	 4.455E-02	 1.247E-02	 4.455E-02	 1.539E+03
    3.9000	 1.308E+01	-3.053E+00	-8.846E-01	 2.104E+01	 7.500E+00	 2.000E+00	 2.344E+00	 8.319E+00	 4.534E+02	 1.534E+03	 3.422E+00	 2.688E+02	-2.368E+02	 1.198E+02	-1.174E+02	-4.732E+02	 7.760E+02	 1.710E+03	 4.270E-01	-4.066E-02	 1.204E+03	 1.508E+04	 4.647E+01	 2.836E+02	-7.799E+00	-1.045E+03	 1.225E-02	 4.445E-02	 1.225E-02	 4.445E-02	 1.542E+03
    3.9500	 1.322E+01	-2.901E+00	-8.949E-01	 2.108E+01	 7.500E+00	 2.001E+00	 2.286E+00	 1.910E+01	 4.223E+02	 1.529E+03	 3.510E+00	 2.660E+02	-2.223E+02	 1.435E+02	-9.609E+01	-4.025E+02	 7.732E+02	 1.707E+03	 4.217E-01	-3.988E-02	 1.176E+03	 1.492E+04	 7.413E+01	 2.821E+02	-7.331E+00	-1.044E+03	 1.199E-02	 4.432E-02	 1.199E-02	 4.432E-02	 1.546E+03
    4.0000	 1.330E+01	-2.896E+00	-7.671E-01	 2.112E+01	 7.500E+00	 1.989E+00	 2.200E+00	 1.649E+01	 3.848E+02	 1.484E+03	 4.045E+00	 2.580E+02	-2.035E+02	 1.655E+02	-8.534E+01	-3.090E+02	 7.675E+02	 1.698E+03	 4.151E-01	-3.891E-02	 1.143E+03	 1.471E+04	 6.585E+01	 2.801E+02	-6.835E+00	-1.041E+03	 1.164E-02	 4.397E-02	 1.164E-02	 4.397E-02	 1.548E+03