
FAST Summary File

Predictions were generated on 02-Sep-2015 at 10:46:08 using FAST (v8.12.00a-bjj-prerelease, 1-Sep-2015), compiled as a 32-bit application using single precision
  compiled with
    NWTC Subroutine Library (v2.06.04a-bjj, 26-Aug-2015)
    ElastoDyn (v1.03.00a-bjj, 9-Jul-2015)
    BeamDyn (unknown version, unknown date) [not called]
    InflowWind (v3.01.00a-adp, 10-Aug-2015)
    AeroDyn14 (v14.04.00a-bjj, 14-Apr-2015)
    AeroDyn (unknown version, unknown date) [not called]
    ServoDyn (v1.03.00a-bjj, 20-Aug-2015)
    HydroDyn (unknown version, unknown date) [not called]
    SubDyn (unknown version, unknown date) [not called]
    MAP (unknown version, unknown date) [not called]
    FEAMooring (unknown version, unknown date) [not called]
    MoorDyn (unknown version, unknown date) [not called]
    IceFloe (unknown version, unknown date) [not called]
    IceDyn (unknown version, unknown date) [not called]


Modeling a land-based turbine
Description from the FAST input file: 
  FAST Certification Test #18: NREL 5.0 MW Baseline Wind Turbine (Onshore)

Interpolation order for input/output time histories: 2 (quadratic)
Number of correction iterations:  0


   Requested Time Steps  
  -------------------------------------------------
  Component          Time Step (s)    Subcycles (-)
  -----------------  ---------------  -------------
  FAST (glue code)    1.250E-02
  InflowWind          1.250E-02              1
  ElastoDyn           1.250E-02              1
  AeroDyn14           1.250E-02              1
  ServoDyn            1.250E-02              1
  FAST output files   1.250E-02              1


   Requested Channels in FAST Output File(s)  
  --------------------------------------------
  Number  Name        Units       Generated by
  ------  ----------  ----------  ------------
       1  Time        (s)         FAST
       2  Wind1VelX   (m/s)       InflowWind
       3  Wind1VelY   (m/s)       InflowWind
       4  Wind1VelZ   (m/s)       InflowWind
       5  BldPitch1   (deg)       ElastoDyn
       6  Azimuth     (deg)       ElastoDyn
       7  RotSpeed    (rpm)       ElastoDyn
       8  GenSpeed    (rpm)       ElastoDyn
       9  TTDspFA     (m)         ElastoDyn
      10  TTDspSS     (m)         ElastoDyn
      11  TTDspTwst   (deg)       ElastoDyn
      12  RotTorq     (kN·m)      ElastoDyn
      13  LSSGagMya   (kN·m)      ElastoDyn
      14  LSSGagMza   (kN·m)      ElastoDyn
      15  YawBrFxp    (kN)        ElastoDyn
      16  YawBrFyp    (kN)        ElastoDyn
      17  YawBrFzp    (kN)        ElastoDyn
      18  YawBrMxp    (kN·m)      ElastoDyn
      19  YawBrMyp    (kN·m)      ElastoDyn
      20  YawBrMzp    (kN·m)      ElastoDyn
      21  TwrBsFxt    (kN)        ElastoDyn
      22  TwrBsFyt    (kN)        ElastoDyn
      23  TwrBsFzt    (kN)        ElastoDyn
      24  TwrBsMxt    (kN·m)      ElastoDyn
      25  TwrBsMyt    (kN·m)      ElastoDyn
      26  TwrBsMzt    (kN·m)      ElastoDyn
      27  RootFxb1    (kN)        ElastoDyn
      28  RootFxb2    (kN)        ElastoDyn
      29  RootFxb3    (kN)        ElastoDyn
      30  RootFyb1    (kN)        ElastoDyn
      31  RootFyb2    (kN)        ElastoDyn
      32  RootFyb3    (kN)        ElastoDyn
      33  RootFzb1    (kN)        ElastoDyn
      34  RootFzb2    (kN)        ElastoDyn
      35  RootFzb3    (kN)        ElastoDyn
      36  RootMxb1    (kN·m)      ElastoDyn
      37  RootMxb2    (kN·m)      ElastoDyn
      38  RootMxb3    (kN·m)      ElastoDyn
      39  RootMyb1    (kN·m)      ElastoDyn
      40  RootMyb2    (kN·m)      ElastoDyn
      41  RootMyb3    (kN·m)      ElastoDyn
      42  RootMzb1    (kN·m)      ElastoDyn
      43  RootMzb2    (kN·m)      ElastoDyn
      44  RootMzb3    (kN·m)      ElastoDyn
      45  TipDxb1     (m)         ElastoDyn
      46  TipDxb2     (m)         ElastoDyn
      47  TipDxb3     (m)         ElastoDyn
      48  TipDyb1     (m)         ElastoDyn
      49  TipDyb2     (m)         ElastoDyn
      50  TipDyb3     (m)         ElastoDyn
      51  TipDzb1     (m)         ElastoDyn
      52  TipDzb2     (m)         ElastoDyn
      53  TipDzb3     (m)         ElastoDyn
      54  TipALxb1    (m/s^2)     ElastoDyn
      55  TipALxb2    (m/s^2)     ElastoDyn
      56  TipALxb3    (m/s^2)     ElastoDyn
      57  TipALyb1    (m/s^2)     ElastoDyn
      58  TipALyb2    (m/s^2)     ElastoDyn
      59  TipALyb3    (m/s^2)     ElastoDyn
      60  TipALzb1    (m/s^2)     ElastoDyn
      61  TipALzb2    (m/s^2)     ElastoDyn
      62  TipALzb3    (m/s^2)     ElastoDyn
      63  GenPwr      (kW)        ServoDyn
      64  GenTq       (kN·m)      ServoDyn
      65  NTMD_XQ     INVALID     ServoDyn
      66  NTMD_XQD    INVALID     ServoDyn
      67  NTMD_YQ     INVALID     ServoDyn
      68  NTMD_YQD    INVALID     ServoDyn
