
FAST Summary File

Predictions were generated on 07-Aug-2015 at 13:20:40 using FAST (v8.12.00a-bjj-prerelease, 4-Aug-2015), compiled as a 32-bit application using single precision
  compiled with
    NWTC Subroutine Library (v2.06.03a-bjj, 6-Aug-2015)
    ElastoDyn (v1.03.00a-bjj, 9-Jul-2015)
    BeamDyn (unknown version, unknown date) [not called]
    InflowWind (v3.00.01a-adp, 27-Apr-2015)
    AeroDyn14 (v14.04.00a-bjj, 14-Apr-2015)
    AeroDyn (unknown version, unknown date) [not called]
    ServoDyn (v1.02.02a-bjj, 11-May-2015)
    HydroDyn (unknown version, unknown date) [not called]
    SubDyn (unknown version, unknown date) [not called]
    MAP (unknown version, unknown date) [not called]
    FEAMooring (unknown version, unknown date) [not called]
    MoorDyn (unknown version, unknown date) [not called]
    IceFloe (unknown version, unknown date) [not called]
    IceDyn (unknown version, unknown date) [not called]


Modeling a land-based turbine
Description from the FAST input file: 
  FAST Certification Test #18: NREL 5.0 MW Baseline Wind Turbine (Onshore)

Interpolation order for input/output time histories: 2 (quadratic)
Number of correction iterations:  0


   Requested Time Steps  
  -------------------------------------------------
  Component          Time Step (s)    Subcycles (-)
  -----------------  ---------------  -------------
  FAST (glue code)    1.250E-02
  InflowWind          1.250E-02              1
  ElastoDyn           1.250E-02              1
  AeroDyn14           1.250E-02              1
  ServoDyn            1.250E-02              1
  FAST output files   1.250E-02              1


   Requested Channels in FAST Output File(s)  
  --------------------------------------------
  Number  Name        Units       Generated by
  ------  ----------  ----------  ------------
       1  Time        (s)         FAST
       2  Wind1VelX   (m/s)       InflowWind
       3  Wind1VelY   (m/s)       InflowWind
       4  Wind1VelZ   (m/s)       InflowWind
       5  OoPDefl1    (m)         ElastoDyn
       6  IPDefl1     (m)         ElastoDyn
       7  TwstDefl1   (deg)       ElastoDyn
       8  BldPitch1   (deg)       ElastoDyn
       9  Azimuth     (deg)       ElastoDyn
      10  RotSpeed    (rpm)       ElastoDyn
      11  GenSpeed    (rpm)       ElastoDyn
      12  TTDspFA     (m)         ElastoDyn
      13  TTDspSS     (m)         ElastoDyn
      14  TTDspTwst   (deg)       ElastoDyn
      15  Spn2MLxb1   (kN·m)      ElastoDyn
      16  Spn2MLyb1   (kN·m)      ElastoDyn
      17  RootFxc1    (kN)        ElastoDyn
      18  RootFyc1    (kN)        ElastoDyn
      19  RootFzc1    (kN)        ElastoDyn
      20  RootMxc1    (kN·m)      ElastoDyn
      21  RootMyc1    (kN·m)      ElastoDyn
      22  RootMzc1    (kN·m)      ElastoDyn
      23  RotTorq     (kN·m)      ElastoDyn
      24  LSSGagMya   (kN·m)      ElastoDyn
      25  LSSGagMza   (kN·m)      ElastoDyn
      26  YawBrFxp    (kN)        ElastoDyn
      27  YawBrFyp    (kN)        ElastoDyn
      28  YawBrFzp    (kN)        ElastoDyn
      29  YawBrMxp    (kN·m)      ElastoDyn
      30  YawBrMyp    (kN·m)      ElastoDyn
      31  YawBrMzp    (kN·m)      ElastoDyn
      32  TwrBsFxt    (kN)        ElastoDyn
      33  TwrBsFyt    (kN)        ElastoDyn
      34  TwrBsFzt    (kN)        ElastoDyn
      35  TwrBsMxt    (kN·m)      ElastoDyn
      36  TwrBsMyt    (kN·m)      ElastoDyn
      37  TwrBsMzt    (kN·m)      ElastoDyn
      38  RootFxb1    (kN)        ElastoDyn
      39  RootFxb2    (kN)        ElastoDyn
      40  RootFxb3    (kN)        ElastoDyn
      41  RootFyb1    (kN)        ElastoDyn
      42  RootFyb2    (kN)        ElastoDyn
      43  RootFyb3    (kN)        ElastoDyn
      44  RootFzb1    (kN)        ElastoDyn
      45  RootFzb2    (kN)        ElastoDyn
      46  RootFzb3    (kN)        ElastoDyn
      47  RootMxb1    (kN·m)      ElastoDyn
      48  RootMxb2    (kN·m)      ElastoDyn
      49  RootMxb3    (kN·m)      ElastoDyn
      50  RootMyb1    (kN·m)      ElastoDyn
      51  RootMyb2    (kN·m)      ElastoDyn
      52  RootMyb3    (kN·m)      ElastoDyn
      53  RootMzb1    (kN·m)      ElastoDyn
      54  RootMzb2    (kN·m)      ElastoDyn
      55  RootMzb3    (kN·m)      ElastoDyn
      56  TipDxb1     (m)         ElastoDyn
      57  TipDxb2     (m)         ElastoDyn
      58  TipDxb3     (m)         ElastoDyn
      59  TipDyb1     (m)         ElastoDyn
      60  TipDyb2     (m)         ElastoDyn
      61  TipDyb3     (m)         ElastoDyn
      62  TipDzb1     (m)         ElastoDyn
      63  TipDzb2     (m)         ElastoDyn
      64  TipDzb3     (m)         ElastoDyn
      65  TipALxb1    (m/s^2)     ElastoDyn
      66  TipALxb2    (m/s^2)     ElastoDyn
      67  TipALxb3    (m/s^2)     ElastoDyn
      68  TipALyb1    (m/s^2)     ElastoDyn
      69  TipALyb2    (m/s^2)     ElastoDyn
      70  TipALyb3    (m/s^2)     ElastoDyn
      71  TipALzb1    (m/s^2)     ElastoDyn
      72  TipALzb2    (m/s^2)     ElastoDyn
      73  TipALzb3    (m/s^2)     ElastoDyn
      74  GenPwr      (kW)        ServoDyn
      75  GenTq       (kN·m)      ServoDyn
      76  NTMD_XQ     INVALID     ServoDyn
      77  NTMD_XQD    INVALID     ServoDyn
      78  NTMD_YQ     INVALID     ServoDyn
      79  NTMD_YQD    INVALID     ServoDyn
